VARIABLES = "X/R","Y/R","Z/R","R/R","Mach","Pres","Temp","Rho","Theta", "Gamma", "Massflow""J"
TITLE = "Streamline Data file"
text  x=5  y=93   t="Streamline Data"
zone t="MassFlow % = 0" I = 47 J = 1 K = 1
0.792131	0.0	0.0	0	1.5	122.151	2494.54	0.00267445	0	1.2961	0	0
0.593367	0.0	0.0	0	1.37321	146.355	2599.72	0.00307474	0	1.2961	0	3
0.640287	0.0	0.0	0	1.36671	147.681	2605.08	0.00309622	0	1.2961	0	6
0.725774	0.0	0.0	0	1.36184	148.682	2609.11	0.0031124	0	1.2961	0	9
0.782143	0.0	0.0	0	1.42417	136.238	2557.52	0.00290942	0	1.2961	0	12
0.857299	0.0	0.0	0	1.49023	123.902	2502.66	0.00270398	0	1.2961	0	15
0.928471	0.0	0.0	0	1.57013	110.149	2436.29	0.00246932	0	1.2961	0	18
0.985173	0.0	0.0	0	1.61477	103.011	2399.28	0.00234493	0	1.2961	0	21
1.0466	0.0	0.0	0	1.674	94.1313	2350.38	0.00218738	0	1.2961	0	24
1.11307	0.0	0.0	0	1.72983	86.3582	2304.55	0.00204666	0	1.2961	0	27
1.16722	0.0	0.0	0	1.77808	80.0904	2265.22	0.00193107	0	1.2961	0	30
1.2215	0.0	0.0	0	1.82339	74.5675	2228.55	0.00182749	0	1.2961	0	33
1.28225	0.0	0.0	0	1.87474	68.7176	2187.34	0.00171585	0	1.2961	0	36
1.3498	0.0	0.0	0	1.93015	62.8688	2143.33	0.00160204	0	1.2961	0	39
1.42492	0.0	0.0	0	1.99112	56.9572	2095.52	0.00148451	0	1.2961	0	42
1.48287	0.0	0.0	0	2.0371	52.8429	2059.93	0.00140107	0	1.2961	0	45
1.54819	0.0	0.0	0	2.08831	48.5852	2020.78	0.00131315	0	1.2961	0	48
1.60867	0.0	0.0	0	2.13482	44.9997	1985.69	0.00123773	0	1.2961	0	51
1.68456	0.0	0.0	0	2.19223	40.918	1943.02	0.00115017	0	1.2961	0	54
1.74829	0.0	0.0	0	2.23945	37.8273	1908.47	0.00108255	0	1.2961	0	57
1.8146	0.0	0.0	0	2.28781	34.8955	1873.62	0.00101722	0	1.2961	0	60
1.88183	0.0	0.0	0	2.33592	32.1975	1839.49	0.000955987	0	1.2961	0	63
1.961	0.0	0.0	0	2.3915	29.3325	1800.74	0.000889662	0	1.2961	0	66
2.03254	0.0	0.0	0	2.44068	27.0069	1767.08	0.00083473	0	1.2961	0	69
2.12716	0.0	0.0	0	2.50437	24.2632	1724.35	0.000768509	0	1.2961	0	72
2.20401	0.0	0.0	0	2.55484	22.2865	1691.2	0.000719739	0	1.2961	0	75
2.29028	0.0	0.0	0	2.61039	20.296	1655.44	0.000669615	0	1.2961	0	78
2.37276	0.0	0.0	0	2.66232	18.5964	1622.69	0.000625922	0	1.2961	0	81
2.47845	0.0	0.0	0	2.72732	16.6694	1582.64	0.000575262	0	1.2961	0	84
2.54628	0.0	0.0	0	2.768	15.5672	1558.1	0.000545686	0	1.2961	0	87
2.85492	0.0	0.0	0	2.768	15.5672	1558.1	0.000545686	0	1.2961	0	90
3.16356	0.0	0.0	0	2.768	15.5672	1558.1	0.000545686	0	1.2961	0	93
3.4722	0.0	0.0	0	2.768	15.5672	1558.1	0.000545686	0	1.2961	0	96
3.78084	0.0	0.0	0	2.768	15.5672	1558.1	0.000545686	0	1.2961	0	99
4.08949	0.0	0.0	0	2.768	15.5672	1558.1	0.000545686	0	1.2961	0	102
4.39813	0.0	0.0	0	2.768	15.5672	1558.1	0.000545686	0	1.2961	0	105
4.70677	0.0	0.0	0	2.768	15.5672	1558.1	0.000545686	0	1.2961	0	108
5.01541	0.0	0.0	0	2.768	15.5672	1558.1	0.000545686	0	1.2961	0	111
5.32405	0.0	0.0	0	2.768	15.5672	1558.1	0.000545686	0	1.2961	0	114
5.63269	0.0	0.0	0	2.768	15.5672	1558.1	0.000545686	0	1.2961	0	117
5.94134	0.0	0.0	0	2.768	15.5672	1558.1	0.000545686	0	1.2961	0	120
6.24998	0.0	0.0	0	2.768	15.5672	1558.1	0.000545686	0	1.2961	0	123
6.55862	0.0	0.0	0	2.768	15.5672	1558.1	0.000545686	0	1.2961	0	126
6.86726	0.0	0.0	0	2.768	15.5672	1558.1	0.000545686	0	1.2961	0	129
7.1759	0.0	0.0	0	2.768	15.5672	1558.1	0.000545686	0	1.2961	0	132
7.48454	0.0	0.0	0	2.768	15.5672	1558.1	0.000545686	0	1.2961	0	135
7.69031	0.0	0.0	0	2.768	15.5672	1558.1	0.000545686	0	1.2961	0	137
zone t="MassFlow % = 10" I = 52 J = 1 K = 37 
0.525615	0	0.328249	0.328249	1.33267	154.774	2633.15	0.00321033	2.52675	1.2961	0.969057	0
0.356124	0	0.320435	0.320435	1.17134	191.39	2764.04	0.00378185	0.263835	1.2961	0.969057	3
0.394896	0	0.320802	0.320802	1.19918	184.732	2741.77	0.00367993	0.614806	1.2961	0.969057	6
0.454819	0	0.322112	0.322112	1.2417	174.828	2707.47	0.00352676	1.30503	1.2961	0.969057	9
0.490429	0	0.323105	0.323105	1.26885	168.679	2685.41	0.00343066	1.71949	1.2961	0.969057	12
0.534177	0	0.324592	0.324592	1.30347	161.038	2657.12	0.00331012	2.23054	1.2961	0.969057	15
0.575523	0	0.3264	0.3264	1.33659	153.945	2629.92	0.00319706	2.7319	1.2961	0.969057	18
0.608419	0	0.328095	0.328095	1.36409	148.219	2607.25	0.00310492	3.10932	1.2961	0.969057	21
0.643785	0	0.330153	0.330153	1.39322	142.32	2583.17	0.00300914	3.53654	1.2961	0.969057	24
0.681784	0	0.332638	0.332638	1.42581	135.92	2556.16	0.00290419	3.95917	1.2961	0.969057	27
0.712449	0	0.334847	0.334847	1.45155	131.019	2534.8	0.00282304	4.31824	1.2961	0.969057	30
0.74292	0	0.337233	0.337233	1.47786	126.145	2512.94	0.00274167	4.65032	1.2961	0.969057	33
0.776638	0	0.340103	0.340103	1.50736	120.846	2488.43	0.00265238	5.00165	1.2961	0.969057	36
0.813713	0	0.343484	0.343484	1.53906	115.346	2462.08	0.00255874	5.40358	1.2961	0.969057	39
0.854373	0	0.347476	0.347476	1.57477	109.387	2432.43	0.00245615	5.80263	1.2961	0.969057	42
0.885372	0	0.350682	0.350682	1.60213	104.995	2409.76	0.00237969	6.09213	1.2961	0.969057	45
0.919792	0	0.35448	0.35448	1.63314	100.186	2384.09	0.00229515	6.38332	1.2961	0.969057	48
0.951327	0	0.358072	0.358072	1.66157	95.941	2360.62	0.00221976	6.63546	1.2961	0.969057	51
0.990388	0	0.362705	0.362705	1.69482	91.1675	2333.25	0.00213404	6.99591	1.2961	0.969057	54
1.02267	0	0.366738	0.366738	1.72207	87.4066	2310.9	0.00206579	7.2903	1.2961	0.969057	57
1.0558	0	0.371037	0.371037	1.75007	83.6826	2288.02	0.00199754	7.58001	1.2961	0.969057	60
1.08889	0	0.375505	0.375505	1.77829	80.0676	2265.05	0.00193062	7.84862	1.2961	0.969057	63
1.12709	0	0.380943	0.380943	1.81128	76.011	2238.32	0.00185472	8.13294	1.2961	0.969057	66
1.16124	0	0.38586	0.38586	1.8418	72.4239	2213.73	0.00178681	8.33446	1.2961	0.969057	69
1.20572	0	0.392415	0.392415	1.88327	67.793	2180.54	0.00169798	8.51663	1.2961	0.969057	72
1.24122	0	0.3978	0.3978	1.91579	64.3432	2154.69	0.00163093	8.66129	1.2961	0.969057	75
1.28047	0	0.403873	0.403873	1.94973	60.9147	2127.91	0.00156347	8.86527	1.2961	0.969057	78
1.31747	0	0.409686	0.409686	1.98238	57.7753	2102.34	0.00150092	9.01787	1.2961	0.969057	81
1.364	0	0.417201	0.417201	2.02137	54.2193	2072.06	0.00142914	9.25171	1.2961	0.969057	84
1.39342	0	0.422029	0.422029	2.04672	52.0178	2052.54	0.00138416	9.36427	1.2961	0.969057	87
1.58072	0	0.452848	0.452848	2.16476	42.8262	1963.35	0.00119134	9.16635	1.2961	0.969057	90
1.80218	0	0.487028	0.487028	2.27355	35.7375	1883.85	0.0010361	8.33135	1.2961	0.969057	93
2.04123	0	0.519735	0.519735	2.36988	30.4174	1815.73	0.000914937	7.24093	1.2961	0.969057	96
2.29344	0	0.549141	0.549141	2.4548	26.3737	1757.52	0.000819587	6.04825	1.2961	0.969057	99
2.557	0	0.574228	0.574228	2.52946	23.26	1707.79	0.000743872	4.84019	1.2961	0.969057	102
2.83067	0	0.594566	0.594566	2.59461	20.8429	1665.52	0.000683493	3.67247	1.2961	0.969057	105
3.11363	0	0.609982	0.609982	2.65064	18.9659	1630	0.000635496	2.58419	1.2961	0.969057	108
3.40501	0	0.62058	0.62058	2.69756	17.5257	1600.85	0.000597929	1.60916	1.2961	0.969057	111
3.70376	0	0.626753	0.626753	2.73486	16.4592	1578.06	0.000569657	0.784681	1.2961	0.969057	114
4.00859	0	0.629164	0.629164	2.76107	15.7495	1562.25	0.000550611	0.170083	1.2961	0.969057	117
4.3171	0	0.629294	0.629294	2.768	15.5672	1558.1	0.000545686	0	1.2961	0.969057	120
4.62574	0	0.629294	0.629294	2.768	15.5672	1558.1	0.000545686	0	1.2961	0.969057	123
4.93438	0	0.629294	0.629294	2.768	15.5672	1558.1	0.000545686	0	1.2961	0.969057	126
5.24302	0	0.629294	0.629294	2.768	15.5672	1558.1	0.000545686	0	1.2961	0.969057	129
5.55166	0	0.629294	0.629294	2.768	15.5672	1558.1	0.000545686	0	1.2961	0.969057	132
5.8603	0	0.629294	0.629294	2.768	15.5672	1558.1	0.000545686	0	1.2961	0.969057	135
6.16895	0	0.629294	0.629294	2.768	15.5672	1558.1	0.000545686	0	1.2961	0.969057	138
6.47759	0	0.629294	0.629294	2.768	15.5672	1558.1	0.000545686	0	1.2961	0.969057	141
6.78623	0	0.629294	0.629294	2.768	15.5672	1558.1	0.000545686	0	1.2961	0.969057	144
7.09487	0	0.629294	0.629294	2.768	15.5672	1558.1	0.000545686	0	1.2961	0.969057	147
7.40351	0	0.629294	0.629294	2.768	15.5672	1558.1	0.000545686	0	1.2961	0.969057	150
7.69031	0	0.629158	0.629158	2.768	15.5672	1558.1	0.000545686	0	1.2961	0.969057	188
0.525615	0.0569999	0.323262	0.328249	1.33267	154.774	2633.15	0.00321033	2.52675	1.2961	0.969057	0
0.356124	0.0556429	0.315566	0.320435	1.17134	191.39	2764.04	0.00378185	0.263835	1.2961	0.969057	3
0.394896	0.0557067	0.315928	0.320802	1.19918	184.732	2741.77	0.00367993	0.614806	1.2961	0.969057	6
0.454819	0.0559342	0.317218	0.322112	1.2417	174.828	2707.47	0.00352676	1.30503	1.2961	0.969057	9
0.490429	0.0561067	0.318197	0.323105	1.26885	168.679	2685.41	0.00343066	1.71949	1.2961	0.969057	12
0.534177	0.0563649	0.319661	0.324592	1.30347	161.038	2657.12	0.00331012	2.23054	1.2961	0.969057	15
0.575523	0.0566788	0.321442	0.3264	1.33659	153.945	2629.92	0.00319706	2.7319	1.2961	0.969057	18
0.608419	0.0569731	0.323111	0.328095	1.36409	148.219	2607.25	0.00310492	3.10932	1.2961	0.969057	21
0.643785	0.0573305	0.325137	0.330153	1.39322	142.32	2583.17	0.00300914	3.53654	1.2961	0.969057	24
0.681784	0.057762	0.327585	0.332638	1.42581	135.92	2556.16	0.00290419	3.95917	1.2961	0.969057	27
0.712449	0.0581456	0.32976	0.334847	1.45155	131.019	2534.8	0.00282304	4.31824	1.2961	0.969057	30
0.74292	0.05856	0.33211	0.337233	1.47786	126.145	2512.94	0.00274167	4.65032	1.2961	0.969057	33
0.776638	0.0590582	0.334936	0.340103	1.50736	120.846	2488.43	0.00265238	5.00165	1.2961	0.969057	36
0.813713	0.0596453	0.338265	0.343484	1.53906	115.346	2462.08	0.00255874	5.40358	1.2961	0.969057	39
0.854373	0.0603385	0.342197	0.347476	1.57477	109.387	2432.43	0.00245615	5.80263	1.2961	0.969057	42
0.885372	0.0608953	0.345354	0.350682	1.60213	104.995	2409.76	0.00237969	6.09213	1.2961	0.969057	45
0.919792	0.0615548	0.349095	0.35448	1.63314	100.186	2384.09	0.00229515	6.38332	1.2961	0.969057	48
0.951327	0.0621785	0.352632	0.358072	1.66157	95.941	2360.62	0.00221976	6.63546	1.2961	0.969057	51
0.990388	0.0629831	0.357195	0.362705	1.69482	91.1675	2333.25	0.00213404	6.99591	1.2961	0.969057	54
1.02267	0.0636835	0.361167	0.366738	1.72207	87.4066	2310.9	0.00206579	7.2903	1.2961	0.969057	57
1.0558	0.0644299	0.3654	0.371037	1.75007	83.6826	2288.02	0.00199754	7.58001	1.2961	0.969057	60
1.08889	0.0652058	0.3698	0.375505	1.77829	80.0676	2265.05	0.00193062	7.84862	1.2961	0.969057	63
1.12709	0.0661501	0.375156	0.380943	1.81128	76.011	2238.32	0.00185472	8.13294	1.2961	0.969057	66
1.16124	0.0670038	0.379998	0.38586	1.8418	72.4239	2213.73	0.00178681	8.33446	1.2961	0.969057	69
1.20572	0.0681421	0.386453	0.392415	1.88327	67.793	2180.54	0.00169798	8.51663	1.2961	0.969057	72
1.24122	0.0690772	0.391756	0.3978	1.91579	64.3432	2154.69	0.00163093	8.66129	1.2961	0.969057	75
1.28047	0.0701319	0.397738	0.403873	1.94973	60.9147	2127.91	0.00156347	8.86527	1.2961	0.969057	78
1.31747	0.0711413	0.403462	0.409686	1.98238	57.7753	2102.34	0.00150092	9.01787	1.2961	0.969057	81
1.364	0.0724462	0.410863	0.417201	2.02137	54.2193	2072.06	0.00142914	9.25171	1.2961	0.969057	84
1.39342	0.0732846	0.415617	0.422029	2.04672	52.0178	2052.54	0.00138416	9.36427	1.2961	0.969057	87
1.58072	0.0786363	0.445969	0.452848	2.16476	42.8262	1963.35	0.00119134	9.16635	1.2961	0.969057	90
1.80218	0.0845715	0.479629	0.487028	2.27355	35.7375	1883.85	0.0010361	8.33135	1.2961	0.969057	93
2.04123	0.0902511	0.511839	0.519735	2.36988	30.4174	1815.73	0.000914937	7.24093	1.2961	0.969057	96
2.29344	0.0953573	0.540798	0.549141	2.4548	26.3737	1757.52	0.000819587	6.04825	1.2961	0.969057	99
2.557	0.0997136	0.565504	0.574228	2.52946	23.26	1707.79	0.000743872	4.84019	1.2961	0.969057	102
2.83067	0.103245	0.585533	0.594566	2.59461	20.8429	1665.52	0.000683493	3.67247	1.2961	0.969057	105
3.11363	0.105922	0.600715	0.609982	2.65064	18.9659	1630	0.000635496	2.58419	1.2961	0.969057	108
3.40501	0.107763	0.611152	0.62058	2.69756	17.5257	1600.85	0.000597929	1.60916	1.2961	0.969057	111
3.70376	0.108835	0.617232	0.626753	2.73486	16.4592	1578.06	0.000569657	0.784681	1.2961	0.969057	114
4.00859	0.109253	0.619606	0.629164	2.76107	15.7495	1562.25	0.000550611	0.170083	1.2961	0.969057	117
4.3171	0.109276	0.619734	0.629294	2.768	15.5672	1558.1	0.000545686	0	1.2961	0.969057	120
4.62574	0.109276	0.619734	0.629294	2.768	15.5672	1558.1	0.000545686	0	1.2961	0.969057	123
4.93438	0.109276	0.619734	0.629294	2.768	15.5672	1558.1	0.000545686	0	1.2961	0.969057	126
5.24302	0.109276	0.619734	0.629294	2.768	15.5672	1558.1	0.000545686	0	1.2961	0.969057	129
5.55166	0.109276	0.619734	0.629294	2.768	15.5672	1558.1	0.000545686	0	1.2961	0.969057	132
5.8603	0.109276	0.619734	0.629294	2.768	15.5672	1558.1	0.000545686	0	1.2961	0.969057	135
6.16895	0.109276	0.619734	0.629294	2.768	15.5672	1558.1	0.000545686	0	1.2961	0.969057	138
6.47759	0.109276	0.619734	0.629294	2.768	15.5672	1558.1	0.000545686	0	1.2961	0.969057	141
6.78623	0.109276	0.619734	0.629294	2.768	15.5672	1558.1	0.000545686	0	1.2961	0.969057	144
7.09487	0.109276	0.619734	0.629294	2.768	15.5672	1558.1	0.000545686	0	1.2961	0.969057	147
7.40351	0.109276	0.619734	0.629294	2.768	15.5672	1558.1	0.000545686	0	1.2961	0.969057	150
7.69031	0.109252	0.619599	0.629158	2.768	15.5672	1558.1	0.000545686	0	1.2961	0.969057	188
0.525615	0.112268	0.308453	0.328249	1.33267	154.774	2633.15	0.00321033	2.52675	1.2961	0.969057	0
0.356124	0.109595	0.30111	0.320435	1.17134	191.39	2764.04	0.00378185	0.263835	1.2961	0.969057	3
0.394896	0.109721	0.301455	0.320802	1.19918	184.732	2741.77	0.00367993	0.614806	1.2961	0.969057	6
0.454819	0.110169	0.302686	0.322112	1.2417	174.828	2707.47	0.00352676	1.30503	1.2961	0.969057	9
0.490429	0.110509	0.30362	0.323105	1.26885	168.679	2685.41	0.00343066	1.71949	1.2961	0.969057	12
0.534177	0.111017	0.305017	0.324592	1.30347	161.038	2657.12	0.00331012	2.23054	1.2961	0.969057	15
0.575523	0.111636	0.306716	0.3264	1.33659	153.945	2629.92	0.00319706	2.7319	1.2961	0.969057	18
0.608419	0.112215	0.308308	0.328095	1.36409	148.219	2607.25	0.00310492	3.10932	1.2961	0.969057	21
0.643785	0.112919	0.310242	0.330153	1.39322	142.32	2583.17	0.00300914	3.53654	1.2961	0.969057	24
0.681784	0.113769	0.312578	0.332638	1.42581	135.92	2556.16	0.00290419	3.95917	1.2961	0.969057	27
0.712449	0.114525	0.314654	0.334847	1.45155	131.019	2534.8	0.00282304	4.31824	1.2961	0.969057	30
0.74292	0.115341	0.316896	0.337233	1.47786	126.145	2512.94	0.00274167	4.65032	1.2961	0.969057	33
0.776638	0.116322	0.319592	0.340103	1.50736	120.846	2488.43	0.00265238	5.00165	1.2961	0.969057	36
0.813713	0.117478	0.322769	0.343484	1.53906	115.346	2462.08	0.00255874	5.40358	1.2961	0.969057	39
0.854373	0.118844	0.32652	0.347476	1.57477	109.387	2432.43	0.00245615	5.80263	1.2961	0.969057	42
0.885372	0.11994	0.329533	0.350682	1.60213	104.995	2409.76	0.00237969	6.09213	1.2961	0.969057	45
0.919792	0.121239	0.333102	0.35448	1.63314	100.186	2384.09	0.00229515	6.38332	1.2961	0.969057	48
0.951327	0.122468	0.336477	0.358072	1.66157	95.941	2360.62	0.00221976	6.63546	1.2961	0.969057	51
0.990388	0.124053	0.340832	0.362705	1.69482	91.1675	2333.25	0.00213404	6.99591	1.2961	0.969057	54
1.02267	0.125432	0.344621	0.366738	1.72207	87.4066	2310.9	0.00206579	7.2903	1.2961	0.969057	57
1.0558	0.126902	0.348661	0.371037	1.75007	83.6826	2288.02	0.00199754	7.58001	1.2961	0.969057	60
1.08889	0.12843	0.352859	0.375505	1.77829	80.0676	2265.05	0.00193062	7.84862	1.2961	0.969057	63
1.12709	0.13029	0.35797	0.380943	1.81128	76.011	2238.32	0.00185472	8.13294	1.2961	0.969057	66
1.16124	0.131972	0.36259	0.38586	1.8418	72.4239	2213.73	0.00178681	8.33446	1.2961	0.969057	69
1.20572	0.134214	0.368749	0.392415	1.88327	67.793	2180.54	0.00169798	8.51663	1.2961	0.969057	72
1.24122	0.136055	0.373809	0.3978	1.91579	64.3432	2154.69	0.00163093	8.66129	1.2961	0.969057	75
1.28047	0.138133	0.379517	0.403873	1.94973	60.9147	2127.91	0.00156347	8.86527	1.2961	0.969057	78
1.31747	0.140121	0.384979	0.409686	1.98238	57.7753	2102.34	0.00150092	9.01787	1.2961	0.969057	81
1.364	0.142691	0.392041	0.417201	2.02137	54.2193	2072.06	0.00142914	9.25171	1.2961	0.969057	84
1.39342	0.144342	0.396577	0.422029	2.04672	52.0178	2052.54	0.00138416	9.36427	1.2961	0.969057	87
1.58072	0.154883	0.425538	0.452848	2.16476	42.8262	1963.35	0.00119134	9.16635	1.2961	0.969057	90
1.80218	0.166573	0.457656	0.487028	2.27355	35.7375	1883.85	0.0010361	8.33135	1.2961	0.969057	93
2.04123	0.17776	0.488391	0.519735	2.36988	30.4174	1815.73	0.000914937	7.24093	1.2961	0.969057	96
2.29344	0.187817	0.516024	0.549141	2.4548	26.3737	1757.52	0.000819587	6.04825	1.2961	0.969057	99
2.557	0.196397	0.539598	0.574228	2.52946	23.26	1707.79	0.000743872	4.84019	1.2961	0.969057	102
2.83067	0.203353	0.558709	0.594566	2.59461	20.8429	1665.52	0.000683493	3.67247	1.2961	0.969057	105
3.11363	0.208626	0.573196	0.609982	2.65064	18.9659	1630	0.000635496	2.58419	1.2961	0.969057	108
3.40501	0.212251	0.583154	0.62058	2.69756	17.5257	1600.85	0.000597929	1.60916	1.2961	0.969057	111
3.70376	0.214362	0.588955	0.626753	2.73486	16.4592	1578.06	0.000569657	0.784681	1.2961	0.969057	114
4.00859	0.215187	0.591221	0.629164	2.76107	15.7495	1562.25	0.000550611	0.170083	1.2961	0.969057	117
4.3171	0.215231	0.591343	0.629294	2.768	15.5672	1558.1	0.000545686	0	1.2961	0.969057	120
4.62574	0.215231	0.591343	0.629294	2.768	15.5672	1558.1	0.000545686	0	1.2961	0.969057	123
4.93438	0.215231	0.591343	0.629294	2.768	15.5672	1558.1	0.000545686	0	1.2961	0.969057	126
5.24302	0.215231	0.591343	0.629294	2.768	15.5672	1558.1	0.000545686	0	1.2961	0.969057	129
5.55166	0.215231	0.591343	0.629294	2.768	15.5672	1558.1	0.000545686	0	1.2961	0.969057	132
5.8603	0.215231	0.591343	0.629294	2.768	15.5672	1558.1	0.000545686	0	1.2961	0.969057	135
6.16895	0.215231	0.591343	0.629294	2.768	15.5672	1558.1	0.000545686	0	1.2961	0.969057	138
6.47759	0.215231	0.591343	0.629294	2.768	15.5672	1558.1	0.000545686	0	1.2961	0.969057	141
6.78623	0.215231	0.591343	0.629294	2.768	15.5672	1558.1	0.000545686	0	1.2961	0.969057	144
7.09487	0.215231	0.591343	0.629294	2.768	15.5672	1558.1	0.000545686	0	1.2961	0.969057	147
7.40351	0.215231	0.591343	0.629294	2.768	15.5672	1558.1	0.000545686	0	1.2961	0.969057	150
7.69031	0.215185	0.591215	0.629158	2.768	15.5672	1558.1	0.000545686	0	1.2961	0.969057	188
0.525615	0.164125	0.284272	0.328249	1.33267	154.774	2633.15	0.00321033	2.52675	1.2961	0.969057	0
0.356124	0.160217	0.277504	0.320435	1.17134	191.39	2764.04	0.00378185	0.263835	1.2961	0.969057	3
0.394896	0.160401	0.277823	0.320802	1.19918	184.732	2741.77	0.00367993	0.614806	1.2961	0.969057	6
0.454819	0.161056	0.278957	0.322112	1.2417	174.828	2707.47	0.00352676	1.30503	1.2961	0.969057	9
0.490429	0.161553	0.279817	0.323105	1.26885	168.679	2685.41	0.00343066	1.71949	1.2961	0.969057	12
0.534177	0.162296	0.281105	0.324592	1.30347	161.038	2657.12	0.00331012	2.23054	1.2961	0.969057	15
0.575523	0.1632	0.282671	0.3264	1.33659	153.945	2629.92	0.00319706	2.7319	1.2961	0.969057	18
0.608419	0.164048	0.284139	0.328095	1.36409	148.219	2607.25	0.00310492	3.10932	1.2961	0.969057	21
0.643785	0.165077	0.285921	0.330153	1.39322	142.32	2583.17	0.00300914	3.53654	1.2961	0.969057	24
0.681784	0.166319	0.288073	0.332638	1.42581	135.92	2556.16	0.00290419	3.95917	1.2961	0.969057	27
0.712449	0.167424	0.289986	0.334847	1.45155	131.019	2534.8	0.00282304	4.31824	1.2961	0.969057	30
0.74292	0.168617	0.292053	0.337233	1.47786	126.145	2512.94	0.00274167	4.65032	1.2961	0.969057	33
0.776638	0.170051	0.294538	0.340103	1.50736	120.846	2488.43	0.00265238	5.00165	1.2961	0.969057	36
0.813713	0.171742	0.297465	0.343484	1.53906	115.346	2462.08	0.00255874	5.40358	1.2961	0.969057	39
0.854373	0.173738	0.300923	0.347476	1.57477	109.387	2432.43	0.00245615	5.80263	1.2961	0.969057	42
0.885372	0.175341	0.303699	0.350682	1.60213	104.995	2409.76	0.00237969	6.09213	1.2961	0.969057	45
0.919792	0.17724	0.306989	0.35448	1.63314	100.186	2384.09	0.00229515	6.38332	1.2961	0.969057	48
0.951327	0.179036	0.310099	0.358072	1.66157	95.941	2360.62	0.00221976	6.63546	1.2961	0.969057	51
0.990388	0.181353	0.314112	0.362705	1.69482	91.1675	2333.25	0.00213404	6.99591	1.2961	0.969057	54
1.02267	0.183369	0.317605	0.366738	1.72207	87.4066	2310.9	0.00206579	7.2903	1.2961	0.969057	57
1.0558	0.185519	0.321328	0.371037	1.75007	83.6826	2288.02	0.00199754	7.58001	1.2961	0.969057	60
1.08889	0.187752	0.325197	0.375505	1.77829	80.0676	2265.05	0.00193062	7.84862	1.2961	0.969057	63
1.12709	0.190472	0.329907	0.380943	1.81128	76.011	2238.32	0.00185472	8.13294	1.2961	0.969057	66
1.16124	0.19293	0.334164	0.38586	1.8418	72.4239	2213.73	0.00178681	8.33446	1.2961	0.969057	69
1.20572	0.196207	0.339841	0.392415	1.88327	67.793	2180.54	0.00169798	8.51663	1.2961	0.969057	72
1.24122	0.1989	0.344505	0.3978	1.91579	64.3432	2154.69	0.00163093	8.66129	1.2961	0.969057	75
1.28047	0.201937	0.349765	0.403873	1.94973	60.9147	2127.91	0.00156347	8.86527	1.2961	0.969057	78
1.31747	0.204843	0.354799	0.409686	1.98238	57.7753	2102.34	0.00150092	9.01787	1.2961	0.969057	81
1.364	0.2086	0.361307	0.417201	2.02137	54.2193	2072.06	0.00142914	9.25171	1.2961	0.969057	84
1.39342	0.211014	0.365488	0.422029	2.04672	52.0178	2052.54	0.00138416	9.36427	1.2961	0.969057	87
1.58072	0.226424	0.392178	0.452848	2.16476	42.8262	1963.35	0.00119134	9.16635	1.2961	0.969057	90
1.80218	0.243514	0.421778	0.487028	2.27355	35.7375	1883.85	0.0010361	8.33135	1.2961	0.969057	93
2.04123	0.259868	0.450104	0.519735	2.36988	30.4174	1815.73	0.000914937	7.24093	1.2961	0.969057	96
2.29344	0.27457	0.47557	0.549141	2.4548	26.3737	1757.52	0.000819587	6.04825	1.2961	0.969057	99
2.557	0.287114	0.497296	0.574228	2.52946	23.26	1707.79	0.000743872	4.84019	1.2961	0.969057	102
2.83067	0.297283	0.514909	0.594566	2.59461	20.8429	1665.52	0.000683493	3.67247	1.2961	0.969057	105
3.11363	0.304991	0.52826	0.609982	2.65064	18.9659	1630	0.000635496	2.58419	1.2961	0.969057	108
3.40501	0.31029	0.537438	0.62058	2.69756	17.5257	1600.85	0.000597929	1.60916	1.2961	0.969057	111
3.70376	0.313377	0.542784	0.626753	2.73486	16.4592	1578.06	0.000569657	0.784681	1.2961	0.969057	114
4.00859	0.314582	0.544872	0.629164	2.76107	15.7495	1562.25	0.000550611	0.170083	1.2961	0.969057	117
4.3171	0.314647	0.544985	0.629294	2.768	15.5672	1558.1	0.000545686	0	1.2961	0.969057	120
4.62574	0.314647	0.544985	0.629294	2.768	15.5672	1558.1	0.000545686	0	1.2961	0.969057	123
4.93438	0.314647	0.544985	0.629294	2.768	15.5672	1558.1	0.000545686	0	1.2961	0.969057	126
5.24302	0.314647	0.544985	0.629294	2.768	15.5672	1558.1	0.000545686	0	1.2961	0.969057	129
5.55166	0.314647	0.544985	0.629294	2.768	15.5672	1558.1	0.000545686	0	1.2961	0.969057	132
5.8603	0.314647	0.544985	0.629294	2.768	15.5672	1558.1	0.000545686	0	1.2961	0.969057	135
6.16895	0.314647	0.544985	0.629294	2.768	15.5672	1558.1	0.000545686	0	1.2961	0.969057	138
6.47759	0.314647	0.544985	0.629294	2.768	15.5672	1558.1	0.000545686	0	1.2961	0.969057	141
6.78623	0.314647	0.544985	0.629294	2.768	15.5672	1558.1	0.000545686	0	1.2961	0.969057	144
7.09487	0.314647	0.544985	0.629294	2.768	15.5672	1558.1	0.000545686	0	1.2961	0.969057	147
7.40351	0.314647	0.544985	0.629294	2.768	15.5672	1558.1	0.000545686	0	1.2961	0.969057	150
7.69031	0.314579	0.544867	0.629158	2.768	15.5672	1558.1	0.000545686	0	1.2961	0.969057	188
0.525615	0.210995	0.251454	0.328249	1.33267	154.774	2633.15	0.00321033	2.52675	1.2961	0.969057	0
0.356124	0.205971	0.245467	0.320435	1.17134	191.39	2764.04	0.00378185	0.263835	1.2961	0.969057	3
0.394896	0.206208	0.245749	0.320802	1.19918	184.732	2741.77	0.00367993	0.614806	1.2961	0.969057	6
0.454819	0.20705	0.246752	0.322112	1.2417	174.828	2707.47	0.00352676	1.30503	1.2961	0.969057	9
0.490429	0.207688	0.247513	0.323105	1.26885	168.679	2685.41	0.00343066	1.71949	1.2961	0.969057	12
0.534177	0.208644	0.248652	0.324592	1.30347	161.038	2657.12	0.00331012	2.23054	1.2961	0.969057	15
0.575523	0.209806	0.250037	0.3264	1.33659	153.945	2629.92	0.00319706	2.7319	1.2961	0.969057	18
0.608419	0.210895	0.251335	0.328095	1.36409	148.219	2607.25	0.00310492	3.10932	1.2961	0.969057	21
0.643785	0.212218	0.252912	0.330153	1.39322	142.32	2583.17	0.00300914	3.53654	1.2961	0.969057	24
0.681784	0.213816	0.254816	0.332638	1.42581	135.92	2556.16	0.00290419	3.95917	1.2961	0.969057	27
0.712449	0.215236	0.256508	0.334847	1.45155	131.019	2534.8	0.00282304	4.31824	1.2961	0.969057	30
0.74292	0.216769	0.258336	0.337233	1.47786	126.145	2512.94	0.00274167	4.65032	1.2961	0.969057	33
0.776638	0.218614	0.260534	0.340103	1.50736	120.846	2488.43	0.00265238	5.00165	1.2961	0.969057	36
0.813713	0.220787	0.263124	0.343484	1.53906	115.346	2462.08	0.00255874	5.40358	1.2961	0.969057	39
0.854373	0.223353	0.266182	0.347476	1.57477	109.387	2432.43	0.00245615	5.80263	1.2961	0.969057	42
0.885372	0.225414	0.268638	0.350682	1.60213	104.995	2409.76	0.00237969	6.09213	1.2961	0.969057	45
0.919792	0.227855	0.271547	0.35448	1.63314	100.186	2384.09	0.00229515	6.38332	1.2961	0.969057	48
0.951327	0.230164	0.274299	0.358072	1.66157	95.941	2360.62	0.00221976	6.63546	1.2961	0.969057	51
0.990388	0.233143	0.277849	0.362705	1.69482	91.1675	2333.25	0.00213404	6.99591	1.2961	0.969057	54
1.02267	0.235735	0.280938	0.366738	1.72207	87.4066	2310.9	0.00206579	7.2903	1.2961	0.969057	57
1.0558	0.238498	0.284231	0.371037	1.75007	83.6826	2288.02	0.00199754	7.58001	1.2961	0.969057	60
1.08889	0.24137	0.287654	0.375505	1.77829	80.0676	2265.05	0.00193062	7.84862	1.2961	0.969057	63
1.12709	0.244866	0.29182	0.380943	1.81128	76.011	2238.32	0.00185472	8.13294	1.2961	0.969057	66
1.16124	0.248026	0.295586	0.38586	1.8418	72.4239	2213.73	0.00178681	8.33446	1.2961	0.969057	69
1.20572	0.252239	0.300607	0.392415	1.88327	67.793	2180.54	0.00169798	8.51663	1.2961	0.969057	72
1.24122	0.255701	0.304732	0.3978	1.91579	64.3432	2154.69	0.00163093	8.66129	1.2961	0.969057	75
1.28047	0.259605	0.309385	0.403873	1.94973	60.9147	2127.91	0.00156347	8.86527	1.2961	0.969057	78
1.31747	0.263341	0.313838	0.409686	1.98238	57.7753	2102.34	0.00150092	9.01787	1.2961	0.969057	81
1.364	0.268172	0.319594	0.417201	2.02137	54.2193	2072.06	0.00142914	9.25171	1.2961	0.969057	84
1.39342	0.271275	0.323293	0.422029	2.04672	52.0178	2052.54	0.00138416	9.36427	1.2961	0.969057	87
1.58072	0.291085	0.346902	0.452848	2.16476	42.8262	1963.35	0.00119134	9.16635	1.2961	0.969057	90
1.80218	0.313055	0.373085	0.487028	2.27355	35.7375	1883.85	0.0010361	8.33135	1.2961	0.969057	93
2.04123	0.334079	0.39814	0.519735	2.36988	30.4174	1815.73	0.000914937	7.24093	1.2961	0.969057	96
2.29344	0.352981	0.420666	0.549141	2.4548	26.3737	1757.52	0.000819587	6.04825	1.2961	0.969057	99
2.557	0.369107	0.439884	0.574228	2.52946	23.26	1707.79	0.000743872	4.84019	1.2961	0.969057	102
2.83067	0.382179	0.455464	0.594566	2.59461	20.8429	1665.52	0.000683493	3.67247	1.2961	0.969057	105
3.11363	0.392089	0.467273	0.609982	2.65064	18.9659	1630	0.000635496	2.58419	1.2961	0.969057	108
3.40501	0.398901	0.475392	0.62058	2.69756	17.5257	1600.85	0.000597929	1.60916	1.2961	0.969057	111
3.70376	0.402869	0.480121	0.626753	2.73486	16.4592	1578.06	0.000569657	0.784681	1.2961	0.969057	114
4.00859	0.404419	0.481968	0.629164	2.76107	15.7495	1562.25	0.000550611	0.170083	1.2961	0.969057	117
4.3171	0.404503	0.482067	0.629294	2.768	15.5672	1558.1	0.000545686	0	1.2961	0.969057	120
4.62574	0.404503	0.482067	0.629294	2.768	15.5672	1558.1	0.000545686	0	1.2961	0.969057	123
4.93438	0.404503	0.482067	0.629294	2.768	15.5672	1558.1	0.000545686	0	1.2961	0.969057	126
5.24302	0.404503	0.482067	0.629294	2.768	15.5672	1558.1	0.000545686	0	1.2961	0.969057	129
5.55166	0.404503	0.482067	0.629294	2.768	15.5672	1558.1	0.000545686	0	1.2961	0.969057	132
5.8603	0.404503	0.482067	0.629294	2.768	15.5672	1558.1	0.000545686	0	1.2961	0.969057	135
6.16895	0.404503	0.482067	0.629294	2.768	15.5672	1558.1	0.000545686	0	1.2961	0.969057	138
6.47759	0.404503	0.482067	0.629294	2.768	15.5672	1558.1	0.000545686	0	1.2961	0.969057	141
6.78623	0.404503	0.482067	0.629294	2.768	15.5672	1558.1	0.000545686	0	1.2961	0.969057	144
7.09487	0.404503	0.482067	0.629294	2.768	15.5672	1558.1	0.000545686	0	1.2961	0.969057	147
7.40351	0.404503	0.482067	0.629294	2.768	15.5672	1558.1	0.000545686	0	1.2961	0.969057	150
7.69031	0.404415	0.481963	0.629158	2.768	15.5672	1558.1	0.000545686	0	1.2961	0.969057	188
0.525615	0.251454	0.210995	0.328249	1.33267	154.774	2633.15	0.00321033	2.52675	1.2961	0.969057	0
0.356124	0.245467	0.205971	0.320435	1.17134	191.39	2764.04	0.00378185	0.263835	1.2961	0.969057	3
0.394896	0.245749	0.206208	0.320802	1.19918	184.732	2741.77	0.00367993	0.614806	1.2961	0.969057	6
0.454819	0.246752	0.20705	0.322112	1.2417	174.828	2707.47	0.00352676	1.30503	1.2961	0.969057	9
0.490429	0.247513	0.207688	0.323105	1.26885	168.679	2685.41	0.00343066	1.71949	1.2961	0.969057	12
0.534177	0.248652	0.208644	0.324592	1.30347	161.038	2657.12	0.00331012	2.23054	1.2961	0.969057	15
0.575523	0.250037	0.209806	0.3264	1.33659	153.945	2629.92	0.00319706	2.7319	1.2961	0.969057	18
0.608419	0.251335	0.210895	0.328095	1.36409	148.219	2607.25	0.00310492	3.10932	1.2961	0.969057	21
0.643785	0.252912	0.212218	0.330153	1.39322	142.32	2583.17	0.00300914	3.53654	1.2961	0.969057	24
0.681784	0.254816	0.213816	0.332638	1.42581	135.92	2556.16	0.00290419	3.95917	1.2961	0.969057	27
0.712449	0.256508	0.215236	0.334847	1.45155	131.019	2534.8	0.00282304	4.31824	1.2961	0.969057	30
0.74292	0.258336	0.216769	0.337233	1.47786	126.145	2512.94	0.00274167	4.65032	1.2961	0.969057	33
0.776638	0.260534	0.218614	0.340103	1.50736	120.846	2488.43	0.00265238	5.00165	1.2961	0.969057	36
0.813713	0.263124	0.220787	0.343484	1.53906	115.346	2462.08	0.00255874	5.40358	1.2961	0.969057	39
0.854373	0.266182	0.223353	0.347476	1.57477	109.387	2432.43	0.00245615	5.80263	1.2961	0.969057	42
0.885372	0.268638	0.225414	0.350682	1.60213	104.995	2409.76	0.00237969	6.09213	1.2961	0.969057	45
0.919792	0.271547	0.227855	0.35448	1.63314	100.186	2384.09	0.00229515	6.38332	1.2961	0.969057	48
0.951327	0.274299	0.230164	0.358072	1.66157	95.941	2360.62	0.00221976	6.63546	1.2961	0.969057	51
0.990388	0.277849	0.233143	0.362705	1.69482	91.1675	2333.25	0.00213404	6.99591	1.2961	0.969057	54