VARIABLES = "X/R","R/R","Mach","Theta","Massflow","I",
TITLE = "RRC Contours"
text  x=5  y=93  t="MOC Grid Data"
zone t="J = 0"
0	1	1.1318	0	11.4015	0
9.80859e-05	0.999815	1.13186	0.00665863	11.3973	1
0.000392442	0.99926	1.13206	0.02656	11.3847	2
0.000883632	0.998335	1.13238	0.0595066	11.3637	3
0.00157273	0.997042	1.13284	0.105185	11.3344	4
0.00246129	0.99538	1.13343	0.163168	11.2968	5
0.00355138	0.99335	1.13414	0.232923	11.2509	6
0.00484548	0.990955	1.13499	0.313811	11.1969	7
0.00634654	0.988195	1.13596	0.4051	11.1347	8
0.00805787	0.985073	1.13707	0.505969	11.0646	9
0.00998314	0.981589	1.1383	0.615515	10.9865	10
0.0121264	0.977747	1.13967	0.732771	10.9006	11
0.0144917	0.973549	1.14116	0.856706	10.8071	12
0.0170838	0.968997	1.14277	0.986246	10.7061	13
0.019907	0.964094	1.14451	1.12028	10.5977	14
0.0229662	0.958842	1.14636	1.25768	10.4821	15
0.0262659	0.953247	1.14833	1.3973	10.3594	16
0.0298109	0.94731	1.15041	1.53802	10.23	17
0.0336056	0.941036	1.15259	1.67872	10.0939	18
0.0376543	0.934428	1.15486	1.81832	9.95137	19
0.041961	0.927491	1.15722	1.9558	9.80268	20
0.0465293	0.920228	1.15966	2.09018	9.64804	21
0.0513625	0.912645	1.16217	2.22056	9.48771	22
0.0564633	0.904746	1.16474	2.34613	9.32195	23
0.0618338	0.896536	1.16737	2.46615	9.15102	24
0.0674758	0.888021	1.17003	2.58	8.97523	25
0.07339	0.879204	1.17272	2.68715	8.79484	26
0.0795769	0.870093	1.17543	2.78717	8.61018	27
0.086036	0.860693	1.17816	2.87975	8.42154	28
0.0927663	0.85101	1.18088	2.96468	8.22924	29
0.099766	0.841049	1.18361	3.04185	8.03362	30
0.107033	0.830818	1.18631	3.11124	7.83498	31
0.114563	0.820322	1.189	3.17293	7.63367	32
0.122354	0.809568	1.19167	3.22709	7.43002	33
0.130401	0.798564	1.19431	3.27393	7.22437	34
0.138699	0.787315	1.19693	3.31376	7.01705	35
0.147244	0.77583	1.19952	3.34692	6.80841	36
0.15603	0.764116	1.20208	3.37378	6.59878	37
0.16505	0.75218	1.20463	3.39474	6.3885	38
0.1743	0.74003	1.20716	3.41024	6.17791	39
0.183774	0.727673	1.20968	3.42068	5.96732	40
0.193464	0.715119	1.2122	3.42649	5.75707	41
0.203365	0.702374	1.21474	3.42806	5.54748	42
0.213472	0.689448	1.2173	3.42578	5.33887	43
0.223777	0.676348	1.21989	3.41999	5.13154	44
0.234275	0.663084	1.22254	3.411	4.92579	45
0.244961	0.649663	1.22525	3.39909	4.72192	46
0.255829	0.636096	1.22804	3.38449	4.52023	47
0.266874	0.622391	1.23092	3.36739	4.32097	48
0.278091	0.608557	1.23392	3.34794	4.12444	49
0.289476	0.594604	1.23704	3.32626	3.93088	50
0.301023	0.58054	1.2403	3.30241	3.74056	51
0.312728	0.566376	1.24372	3.27644	3.5537	52
0.324587	0.552122	1.24731	3.24836	3.37054	53
0.336596	0.537786	1.25109	3.21817	3.19131	54
0.348751	0.523379	1.25506	3.18581	3.0162	55
0.361047	0.508912	1.25924	3.15126	2.84541	56
0.373482	0.494394	1.26365	3.11444	2.67913	57
0.386049	0.479835	1.26828	3.0753	2.51752	58
0.398745	0.465246	1.27315	3.03376	2.36074	59
0.411566	0.450638	1.27826	2.98977	2.20893	60
0.424506	0.436021	1.28362	2.94326	2.06222	61
0.437559	0.421406	1.28923	2.89418	1.92072	62
0.45072	0.406804	1.29509	2.84249	1.78453	63
0.463983	0.392226	1.3012	2.78816	1.65373	64
0.477341	0.377683	1.30756	2.73118	1.52839	65
0.490785	0.363186	1.31416	2.67153	1.40854	66
0.504308	0.348748	1.321	2.60923	1.29423	67
0.517901	0.334378	1.32808	2.54431	1.18547	68
0.531554	0.320089	1.33537	2.4768	1.08227	69
0.545256	0.305893	1.34288	2.40675	0.984593	70
0.558995	0.291802	1.35059	2.33422	0.892419	71
0.572759	0.277828	1.35848	2.25929	0.805696	72
0.586535	0.263984	1.36654	2.18205	0.724357	73
0.600308	0.250281	1.37476	2.10258	0.648322	74
0.614063	0.236733	1.38312	2.021	0.577496	75
0.627783	0.223353	1.39159	1.93742	0.511767	76
0.64145	0.210154	1.40017	1.85197	0.451011	77
0.655046	0.19715	1.40882	1.76479	0.395091	78
0.668552	0.184354	1.41753	1.67604	0.343856	79
0.681945	0.17178	1.42627	1.58587	0.297147	80
0.695205	0.159445	1.43503	1.49447	0.254789	81
0.708308	0.147362	1.44377	1.40204	0.216601	82
0.72123	0.135548	1.45247	1.3088	0.182392	83
0.733944	0.124019	1.46111	1.21498	0.151964	84
0.746424	0.112792	1.46966	1.12085	0.125109	85
0.758641	0.101886	1.47809	1.0267	0.101617	86
0.770564	0.091319	1.48637	0.932863	0.0812698	87
0.782161	0.0811128	1.49448	0.839686	0.0638465	88
0.78778	0.0712893	1.49822	0.741869	0.049219	89
0.790476	0.0618726	1.49986	0.644901	0.0370415	90
0.790797	0.0528898	1.4998	0.550564	0.0270657	91
0.7911	0.044371	1.49979	0.461435	0.0190482	92
0.791385	0.0363508	1.49982	0.377765	0.0127837	93
0.79165	0.0288697	1.49988	0.299882	0.00806279	94
0.791893	0.0219768	1.49996	0.228224	0.00467201	95
0.792003	0.0157341	1.49997	0.163354	0.00239467	96
0.792051	0.010224	1.49997	0.106129	0.00101112	97
0.792092	0.00556695	1.49998	0.057783	0.000299773	98
0.792124	0.00196858	1.5	0.0204331	3.74851e-05	99
0.792128	0	1.5	0	0	100
zone t="J = 1"
0.000196211	1	1.13207	0.011242	11.4353	0
0.000490595	0.999445	1.13172	0.0189896	11.4227	1
0.00098109	0.99852	1.13116	0.0317961	11.4017	2
0.00166757	0.997221	1.13037	0.0495085	11.3723	3
0.00254992	0.995548	1.12938	0.0719184	11.3344	4
0.00362799	0.993496	1.12818	0.0987649	11.2881	5
0.00490168	0.991063	1.1268	0.129739	11.2331	6
0.00637084	0.988242	1.12526	0.164488	11.1696	7
0.00803539	0.98503	1.12356	0.20262	11.0975	8
0.0098952	0.981419	1.12172	0.243713	11.0166	9
0.0119502	0.977404	1.11977	0.287317	10.9269	10
0.0142002	0.972979	1.11773	0.332965	10.8284	11
0.0166453	0.968134	1.11562	0.380176	10.7211	12
0.0192853	0.962864	1.11346	0.428466	10.6048	13
0.0221202	0.95716	1.11129	0.47735	10.4795	14
0.0251499	0.951016	1.10911	0.526355	10.3453	15
0.0283743	0.944423	1.10697	0.57502	10.2022	16
0.0317933	0.937375	1.10487	0.622906	10.0502	17
0.0354068	0.929867	1.10286	0.6696	9.88938	18
0.0392146	0.921893	1.10094	0.714719	9.71991	19
0.0432165	0.91345	1.09914	0.757917	9.54195	20
0.0474123	0.904536	1.09748	0.798884	9.35572	21
0.0518016	0.89515	1.09599	0.83735	9.16152	22
0.0563841	0.885294	1.09467	0.873087	8.95967	23
0.0611594	0.874972	1.09354	0.905912	8.75059	24
0.0661269	0.86419	1.09261	0.935683	8.53472	25
0.0712862	0.852955	1.09189	0.962302	8.31258	26
0.0766364	0.841279	1.09138	0.985712	8.08472	27
0.0821769	0.829173	1.09109	1.00589	7.85174	28
0.0879067	0.816651	1.09102	1.02287	7.61428	29
0.0938249	0.80373	1.09116	1.03669	7.37299	30
0.0999303	0.790425	1.09151	1.04743	7.12855	31
0.106222	0.776755	1.09206	1.0552	6.88164	32
0.112697	0.762737	1.0928	1.06012	6.63293	33
0.119356	0.748392	1.09372	1.06232	6.38311	34
0.126195	0.733737	1.09481	1.06195	6.13282	35
0.133214	0.718791	1.09606	1.05913	5.8827	36
0.140408	0.703574	1.09746	1.05399	5.63336	37
0.147777	0.688103	1.099	1.04665	5.38539	38
0.155316	0.672396	1.10066	1.0372	5.13935	39
0.163024	0.656471	1.10245	1.02571	4.89576	40
0.170897	0.640346	1.10435	1.01221	4.65513	41
0.17893	0.624036	1.10637	0.996718	4.41792	42
0.187122	0.607558	1.10849	0.979197	4.18459	43
0.195467	0.590929	1.11071	0.959578	3.95554	44
0.203962	0.574164	1.11305	0.937754	3.73117	45
0.212603	0.557279	1.11548	0.913576	3.51184	46
0.221384	0.540289	1.11803	0.886855	3.29789	47
0.230303	0.52321	1.12069	0.857364	3.08961	48
0.239353	0.506055	1.12346	0.824834	2.8873	49
0.248531	0.488841	1.12636	0.78896	2.69122	50
0.257831	0.47158	1.12938	0.749397	2.50159	51
0.267248	0.454288	1.13254	0.705765	2.31861	52
0.276778	0.436977	1.13583	0.657641	2.14247	53
0.286415	0.419662	1.13926	0.604567	1.97332	54
0.296153	0.402355	1.14284	0.546039	1.81129	55
0.305987	0.385069	1.14658	0.481504	1.65647	56
0.31591	0.367817	1.15047	0.410352	1.50895	57
0.325917	0.350609	1.15451	0.331904	1.36877	58
0.336	0.333459	1.15871	0.245392	1.23598	59
0.346152	0.316376	1.16307	0.14993	1.11058	60
0.356364	0.299373	1.1676	0.0444808	0.992561	61
0.366706	0.282349	1.17199	0	0.881151	62
0.377097	0.265496	1.17763	0	0.777442	63
0.387495	0.248959	1.18499	0	0.682048	64
0.397959	0.232699	1.19336	0	0.594423	65
0.408512	0.216694	1.20237	0	0.514162	66
0.419163	0.200938	1.21182	0	0.440935	67
0.429914	0.185426	1.22163	0	0.374449	68
0.440758	0.170161	1.23173	0	0.314425	69
0.451689	0.155143	1.24208	0	0.260595	70
0.462698	0.140377	1.25265	0	0.212691	71
0.473773	0.125866	1.26344	0	0.170446	72
0.484904	0.111616	1.27441	0	0.133595	73
0.496076	0.0976307	1.28555	0	0.101868	74
0.507277	0.0839171	1.29683	0	0.0749981	75
0.51849	0.0704812	1.30824	0	0.0527159	76
0.529699	0.0573297	1.31975	0	0.0347508	77
0.540887	0.0444702	1.33134	0	0.0208314	78
0.552036	0.0319106	1.34299	0	0.0106856	79
0.563124	0.0196596	1.35467	0	0.00404045	80
0.574132	0.00772636	1.36636	0	0.000622554	81
0.581326	0	1.36636	0	0	82
zone t="J = 2"
0.000785026	1	1.13287	0.0449787	11.4373	0
0.00127651	0.999078	1.13231	0.0577934	11.4164	1
0.00196438	0.997785	1.13153	0.0755174	11.387	2
0.00284854	0.996118	1.13054	0.0979423	11.3493	3
0.00392886	0.994074	1.12935	0.124807	11.3031	4
0.00520524	0.991649	1.12798	0.155803	11.2483	5
0.00667758	0.98884	1.12644	0.190576	11.185	6
0.00834579	0.98564	1.12475	0.228736	11.1131	7
0.0102098	0.982044	1.12292	0.26986	11.0325	8
0.0122696	0.978045	1.12098	0.313499	10.9431	9
0.014525	0.973637	1.11895	0.359185	10.8449	10
0.0169761	0.968813	1.11685	0.406437	10.7379	11
0.0196228	0.963565	1.11471	0.45477	10.622	12
0.0224652	0.957886	1.11255	0.503701	10.4973	13
0.0255031	0.951768	1.11039	0.552756	10.3635	14
0.0287367	0.945204	1.10826	0.601473	10.2209	15
0.0321657	0.938189	1.10618	0.649414	10.0695	16
0.0357902	0.930715	1.10418	0.696166	9.90926	17
0.0396101	0.922779	1.10228	0.741346	9.74041	18
0.0436252	0.914376	1.1005	0.784608	9.56311	19
0.0478354	0.905504	1.09886	0.82564	9.37759	20
0.0522403	0.896164	1.09738	0.864174	9.18411	21
0.0568398	0.886357	1.09608	0.899983	8.98302	22
0.0616334	0.876087	1.09496	0.932882	8.77471	23
0.0666206	0.865358	1.09405	0.96273	8.55963	24
0.0718009	0.854181	1.09334	0.98943	8.33829	25
0.0771737	0.842563	1.09285	1.01292	8.11123	26
0.0827382	0.830518	1.09257	1.03319	7.87904	27
0.0884934	0.818059	1.09251	1.05026	7.64235	28
0.0944385	0.805202	1.09266	1.06418	7.40182	29
0.100572	0.791962	1.09302	1.07503	7.1581	30
0.106893	0.778358	1.09358	1.08291	6.91188	31
0.1134	0.764408	1.09433	1.08794	6.66382	32
0.12009	0.75013	1.09526	1.09027	6.41459	33
0.126963	0.735542	1.09636	1.09003	6.16484	34
0.134016	0.720664	1.09761	1.08735	5.91521	35
0.141246	0.705514	1.09902	1.08236	5.66629	36
0.148651	0.69011	1.10056	1.07519	5.41868	37
0.156228	0.67447	1.10223	1.06591	5.17293	38
0.163974	0.65861	1.10402	1.05461	4.92956	39
0.171886	0.64255	1.10593	1.04131	4.68908	40
0.179959	0.626304	1.10795	1.02603	4.45196	41
0.188192	0.609889	1.11008	1.00874	4.21864	42
0.196578	0.593322	1.11231	0.989369	3.98953	43
0.205115	0.576617	1.11464	0.967812	3.76504	44
0.213799	0.559792	1.11709	0.943922	3.54551	45
0.222624	0.54286	1.11964	0.917514	3.33129	46
0.231586	0.525837	1.1223	0.888363	3.12268	47
0.240681	0.508737	1.12508	0.856205	2.91998	48
0.249905	0.491575	1.12799	0.820738	2.72343	49
0.259251	0.474366	1.13101	0.781624	2.53327	50
0.268715	0.457123	1.13418	0.738487	2.34971	51
0.278293	0.439861	1.13748	0.690915	2.17293	52
0.287978	0.422591	1.14092	0.638458	2.00308	53
0.297765	0.405328	1.14451	0.580622	1.84029	54
0.307649	0.388084	1.14825	0.516868	1.68467	55
0.317623	0.370871	1.15214	0.446605	1.5363	56
0.327681	0.353701	1.15619	0.369173	1.39523	57
0.337816	0.336585	1.1604	0.283828	1.26151	58
0.348021	0.319536	1.16477	0.189718	1.13514	59
0.358288	0.302563	1.1693	0.085846	1.01612	60
0.368666	0.285555	1.17243	0.0109892	0.903589	61
0.379055	0.268658	1.17526	0	0.798365	62
0.389416	0.252002	1.18015	0	0.701034	63
0.399814	0.235574	1.18679	0	0.611271	64
0.410283	0.219375	1.19463	0	0.528859	65
0.420839	0.203414	1.20328	0	0.453577	66
0.431488	0.187696	1.21252	0	0.385184	67
0.442226	0.172226	1.22218	0	0.323427	68
0.453049	0.15701	1.23219	0	0.268042	69
0.463947	0.142052	1.24249	0	0.218759	70
0.474912	0.127358	1.25302	0	0.175306	71
0.485932	0.112931	1.26377	0	0.137406	72
0.496993	0.0987784	1.27472	0	0.104782	73
0.508083	0.0849048	1.28583	0	0.0771561	74
0.519187	0.0713167	1.29708	0	0.0542489	75
0.530288	0.0580209	1.30847	0	0.0357799	76
0.54137	0.0450246	1.31995	0	0.0214681	77
0.552413	0.0323357	1.33152	0	0.0110317	78
0.563399	0.0199627	1.34314	0	0.00418851	79
0.574306	0.00791479	1.35479	0	0.000656085	80
0.581451	0.000134424	1.36058	0	1.88982e-07	81
0.581575	0	1.36058	0	0	82
zone t="J = 3"
0.00176728	1	1.13423	0.101258	11.4386	0
0.00245746	0.998716	1.13346	0.119001	11.4094	1
0.00334462	0.997059	1.13247	0.14145	11.3719	2
0.00442865	0.995028	1.1313	0.168345	11.3259	3
0.00570949	0.992619	1.12993	0.199376	11.2714	4
0.00718708	0.989827	1.12841	0.23419	11.2085	5
0.00886137	0.986648	1.12673	0.272396	11.1369	6
0.0107323	0.983075	1.12492	0.313571	11.0567	7
0.0128	0.979103	1.123	0.357267	10.9679	8
0.0150643	0.974724	1.12099	0.403014	10.8703	9
0.0175253	0.969933	1.11891	0.450333	10.7639	10
0.0201832	0.964721	1.11679	0.498738	10.6486	11
0.0230378	0.959082	1.11465	0.547745	10.5246	12
0.0260894	0.953008	1.11251	0.596881	10.3916	13
0.029338	0.946492	1.11041	0.645684	10.2499	14
0.0327836	0.939529	1.10835	0.693716	10.0993	15
0.0364263	0.932111	1.10638	0.740563	9.94007	16
0.040266	0.924235	1.10451	0.785843	9.77225	17
0.0443029	0.915898	1.10275	0.829207	9.59603	18
0.0485367	0.907097	1.10114	0.870348	9.41163	19
0.0529673	0.897831	1.09969	0.908994	9.21933	20
0.0575946	0.888103	1.09841	0.94492	9.01946	21
0.0624181	0.877916	1.09732	0.97794	8.81241	22
0.0674376	0.867275	1.09643	1.00792	8.59861	23
0.0726525	0.856189	1.09575	1.03475	8.37855	24
0.0780621	0.844667	1.09528	1.05838	8.15278	25
0.0836658	0.83272	1.09503	1.07879	7.92188	26
0.0894627	0.820362	1.09499	1.09601	7.68645	27
0.0954516	0.807609	1.09516	1.11009	7.44714	28
0.101631	0.794475	1.09553	1.12111	7.20459	29
0.108001	0.780978	1.0961	1.12917	6.95949	30
0.114558	0.767136	1.09686	1.1344	6.71247	31
0.121301	0.752967	1.0978	1.13694	6.46421	32
0.128228	0.738489	1.09891	1.13691	6.21534	33
0.135337	0.723721	1.10018	1.13446	5.9665	34
0.142625	0.708679	1.1016	1.12973	5.71827	35
0.15009	0.693384	1.10315	1.12282	5.47124	36
0.157728	0.677851	1.10483	1.11382	5.22597	37
0.165537	0.662099	1.10663	1.10282	4.98297	38
0.173513	0.646143	1.10855	1.08985	4.74275	39
0.181652	0.630001	1.11057	1.07492	4.50577	40
0.189951	0.613689	1.11271	1.05801	4.27248	41
0.198405	0.597222	1.11495	1.03904	4.0433	42
0.207011	0.580617	1.11729	1.01791	3.81861	43
0.215764	0.563888	1.11975	0.994487	3.59877	44
0.224661	0.547051	1.12231	0.968584	3.38413	45
0.233695	0.53012	1.12498	0.939982	3.175	46
0.242864	0.51311	1.12777	0.908421	2.97167	47
0.252162	0.496035	1.13069	0.873609	2.77438	48
0.261584	0.478911	1.13373	0.835215	2.58338	49
0.271125	0.461749	1.1369	0.792874	2.39889	50
0.28078	0.444565	1.14021	0.746185	2.22107	51
0.290544	0.42737	1.14366	0.694712	2.0501	52
0.300412	0.410179	1.14726	0.637979	1.88611	53
0.310377	0.393004	1.15102	0.575471	1.7292	54
0.320434	0.375856	1.15492	0.506619	1.57946	55
0.330576	0.358748	1.15899	0.430795	1.43696	56
0.340797	0.34169	1.16321	0.347297	1.30173	57
0.351089	0.324696	1.16759	0.25532	1.1738	58
0.361445	0.307774	1.17213	0.15393	1.05316	59
0.371904	0.290832	1.1753	0.0816128	0.939062	60
0.382355	0.273992	1.17699	0.0429125	0.83219	61
0.392749	0.257325	1.17945	0	0.732787	62
0.403138	0.240803	1.18313	0	0.640504	63
0.413569	0.224445	1.18891	0	0.555278	64
0.424068	0.208285	1.19614	0	0.477119	65
0.434645	0.192349	1.20438	0	0.405924	66
0.445304	0.176655	1.21334	0	0.341515	67
0.456042	0.161215	1.22283	0	0.283665	68
0.466853	0.146037	1.23272	0	0.232119	69
0.477727	0.131128	1.24293	0	0.186603	70
0.488656	0.116496	1.25341	0	0.146839	71
0.499626	0.102146	1.26412	0	0.112539	72
0.510625	0.0880831	1.27503	0	0.0834161	73
0.521637	0.0743146	1.28611	0	0.0591796	74
0.532648	0.060847	1.29734	0	0.0395384	75
0.543641	0.0476875	1.30869	0	0.0242005	76
0.554596	0.0348438	1.32015	0	0.0128735	77
0.565496	0.0223243	1.33169	0	0.0052647	78
0.576319	0.010138	1.34328	0	0.00108144	79
0.583417	0.00228041	1.35195	0	5.45081e-05	80
0.583543	0.00214151	1.35627	0	4.80643e-05	81
0.585506	0	1.35627	0	0	82
zone t="J = 4"
0.00314456	1	1.13615	0.18017	11.4394	0
0.00403587	0.998362	1.13518	0.202653	11.4021	1
0.00512506	0.996349	1.13402	0.229589	11.3564	2
0.00641209	0.99396	1.13267	0.260668	11.3024	3
0.00789694	0.991193	1.13116	0.295538	11.2399	4
0.00957964	0.988041	1.1295	0.333807	11.1689	5
0.0114602	0.9845	1.12771	0.375052	11.0893	6
0.0135388	0.980564	1.12581	0.418825	11.0011	7
0.0158154	0.976226	1.12383	0.464656	10.9042	8
0.0182901	0.971479	1.12178	0.512066	10.7986	9
0.0209633	0.966317	1.11969	0.560569	10.6843	10
0.0238349	0.960732	1.11758	0.609681	10.5612	11
0.0269053	0.954717	1.11547	0.658928	10.4293	12
0.0301746	0.948266	1.1134	0.707849	10.2887	13
0.033643	0.941373	1.11138	0.756004	10.1394	14
0.0373107	0.934032	1.10945	0.80298	9.98144	15
0.0411778	0.926238	1.10761	0.848396	9.815	16
0.0452445	0.917989	1.10589	0.891902	9.64024	17
0.0495107	0.909282	1.10432	0.93319	9.45737	18
0.0539765	0.900117	1.1029	0.97199	9.26666	19
0.0586418	0.890495	1.10166	1.00808	9.06843	20
0.0635064	0.88042	1.10061	1.04126	8.86306	21
0.0685699	0.869897	1.09975	1.07141	8.65097	22
0.073832	0.858933	1.0991	1.09842	8.43264	23
0.079292	0.847539	1.09866	1.12224	8.2086	24
0.0849493	0.835724	1.09843	1.14286	7.97941	25
0.0908028	0.823502	1.09842	1.16029	7.74567	26
0.0968516	0.810888	1.09861	1.17459	7.508	27
0.103094	0.797896	1.09901	1.18584	7.26703	28
0.109529	0.784543	1.0996	1.19415	7.02342	29
0.116155	0.770846	1.10038	1.19964	6.77781	30
0.12297	0.756824	1.10134	1.20245	6.53086	31
0.129971	0.742493	1.10247	1.20273	6.28318	32
0.137157	0.727871	1.10375	1.2006	6.0354	33
0.144524	0.712977	1.10518	1.1962	5.78811	34
0.15207	0.697827	1.10674	1.18965	5.54188	35
0.159792	0.68244	1.10843	1.18105	5.29726	36
0.167686	0.666831	1.11025	1.17046	5.05478	37
0.175749	0.651018	1.11218	1.15793	4.81492	38
0.183977	0.635017	1.11422	1.14347	4.57816	39
0.192366	0.618844	1.11636	1.12705	4.34494	40
0.200913	0.602514	1.11862	1.10862	4.11567	41
0.209613	0.586042	1.12098	1.08808	3.89074	42
0.218462	0.569445	1.12344	1.06528	3.67053	43
0.227456	0.552736	1.12602	1.04006	3.45536	44
0.236589	0.535931	1.1287	1.01219	3.24554	45
0.245858	0.519044	1.13151	0.981422	3.04138	46
0.255257	0.502088	1.13444	0.947481	2.84314	47
0.264783	0.485078	1.13749	0.910042	2.65104	48
0.274429	0.468029	1.14068	0.868753	2.46531	49
0.284191	0.450952	1.14401	0.823229	2.28613	50
0.294063	0.433861	1.14748	0.773052	2.11367	51
0.304041	0.416768	1.1511	0.71777	1.94807	52
0.314117	0.399687	1.15487	0.656892	1.78945	53
0.324288	0.38263	1.15879	0.589883	1.63789	54
0.334545	0.365607	1.16287	0.516155	1.49347	55
0.344883	0.348631	1.16711	0.435053	1.35623	56
0.355295	0.331712	1.17151	0.345836	1.22621	57
0.365772	0.314862	1.17607	0.247644	1.10341	58
0.376342	0.29801	1.17929	0.178566	0.987214	59
0.386892	0.281282	1.18107	0.14303	0.878328	60
0.397386	0.264713	1.18326	0.0948413	0.77678	61
0.407857	0.248252	1.18517	0.0509074	0.682099	62
0.418335	0.231865	1.18807	0	0.593988	63
0.428836	0.215591	1.19212	0	0.512538	64
0.439386	0.199472	1.19828	0	0.437819	65
0.450001	0.183558	1.20585	0	0.369884	66
0.460684	0.167881	1.21439	0	0.308631	67
0.471432	0.15246	1.22361	0	0.253871	68
0.482241	0.137311	1.23333	0	0.205361	69
0.4931	0.122444	1.24343	0	0.162828	70
0.504	0.107865	1.25383	0	0.125986	71
0.514928	0.0935824	1.26449	0	0.0945384	72
0.525869	0.0796033	1.27536	0	0.0681855	73
0.536809	0.0659342	1.2864	0	0.0466248	74
0.547731	0.0525827	1.2976	0	0.0295526	75
0.558617	0.0395562	1.30892	0	0.0166647	76
0.569448	0.0268631	1.32035	0	0.00765678	77
0.580204	0.0145123	1.33186	0	0.0022246	78
0.587269	0.00654977	1.34194	0	0.000450669	79
0.587413	0.00638965	1.34912	0	0.000428843	80
0.589372	0.00423255	1.3527	0	0.000188078	81
0.593228	0	1.3527	0	0	82
zone t="J = 5"
0.00401722	1.00001	1.13739	0.23017	11.4403	0
0.00447128	0.999178	1.1369	0.241604	11.4214	1
0.00556371	0.997175	1.13574	0.268565	11.376	2
0.00685462	0.994799	1.1344	0.299674	11.3222	3
0.00834404	0.992047	1.1329	0.334578	11.2599	4
0.010032	0.988913	1.13125	0.372886	11.1893	5
0.0119186	0.985391	1.12948	0.414175	11.1101	6
0.014004	0.981477	1.12759	0.457996	11.0223	7
0.0162883	0.977164	1.12562	0.503879	10.9259	8
0.0187717	0.972445	1.12359	0.551346	10.8208	9
0.0214544	0.967313	1.12152	0.599909	10.707	10
0.0243367	0.961761	1.11943	0.649086	10.5845	11
0.0274188	0.955783	1.11734	0.698402	10.4533	12
0.0307011	0.949372	1.11529	0.747395	10.3134	13
0.0341837	0.942522	1.1133	0.795627	10.1648	14
0.0378669	0.935228	1.11138	0.842684	10.0076	15
0.0417511	0.927484	1.10956	0.888183	9.84206	16
0.0458363	0.919289	1.10787	0.931778	9.66818	17
0.0501227	0.91064	1.10632	0.973157	9.48625	18
0.0546104	0.901536	1.10493	1.01205	9.2965	19
0.0592993	0.891979	1.10371	1.04824	9.09928	20
0.0641893	0.881972	1.10267	1.08153	8.89493	21
0.0692802	0.871521	1.10184	1.11178	8.68388	22
0.0745715	0.860633	1.10121	1.13891	8.46661	23
0.0800627	0.849316	1.10079	1.16285	8.24363	24
0.085753	0.837582	1.10058	1.18359	8.01548	25
0.0916416	0.825442	1.10058	1.20115	7.78277	26
0.0977274	0.812913	1.10079	1.21558	7.54609	27
0.104009	0.800007	1.1012	1.22698	7.30609	28
0.110485	0.786742	1.1018	1.23544	7.06339	29
0.117153	0.773134	1.10259	1.2411	6.81864	30
0.124012	0.7592	1.10356	1.24408	6.57248	31
0.131059	0.744959	1.1047	1.24454	6.32554	32
0.138292	0.730427	1.10599	1.24261	6.07841	33
0.145708	0.715623	1.10743	1.23842	5.8317	34
0.153304	0.700563	1.109	1.2321	5.58597	35
0.161077	0.685264	1.1107	1.22373	5.34176	36
0.169024	0.669744	1.11252	1.21339	5.0996	37
0.177141	0.654018	1.11446	1.20113	4.85998	38
0.185424	0.638103	1.11651	1.18696	4.62337	39
0.19387	0.622015	1.11866	1.17086	4.3902	40
0.202474	0.605769	1.12092	1.15276	4.16089	41
0.211232	0.58938	1.12329	1.13257	3.93584	42
0.22014	0.572864	1.12577	1.11015	3.7154	43
0.229194	0.556235	1.12835	1.08533	3.49992	44
0.238388	0.539507	1.13105	1.05791	3.28971	45
0.247719	0.522695	1.13386	1.02763	3.08506	46
0.257182	0.505814	1.1368	0.994213	2.88624	47
0.266771	0.488875	1.13987	0.95735	2.69349	48
0.276482	0.471895	1.14306	0.916694	2.50702	49
0.28631	0.454885	1.1464	0.87187	2.32702	50
0.296249	0.437858	1.14988	0.822469	2.15367	51
0.306295	0.420827	1.15351	0.768053	1.98711	52
0.316441	0.403806	1.15729	0.708147	1.82745	53
0.326682	0.386804	1.16123	0.642233	1.67479	54
0.337011	0.369835	1.16532	0.569747	1.52921	55
0.347422	0.35291	1.16957	0.490062	1.39075	56
0.357907	0.336039	1.17398	0.40247	1.25946	57
0.368459	0.319235	1.17856	0.306155	1.13534	58
0.379098	0.302439	1.18181	0.238959	1.01787	59
0.389709	0.285779	1.18363	0.205239	0.907764	60
0.400269	0.269274	1.18587	0.159163	0.804936	61
0.410804	0.252881	1.18784	0.11755	0.708956	62
0.421347	0.23655	1.19037	0.0584442	0.61944	63
0.431888	0.220293	1.19243	0.00785888	0.536373	64
0.442442	0.204118	1.19552	0	0.45967	65
0.453026	0.188078	1.20071	0	0.389476	66
0.463656	0.172232	1.20759	0	0.325881	67
0.474336	0.156619	1.21564	0	0.268828	68
0.485066	0.141267	1.22454	0	0.218149	69
0.495842	0.126194	1.23404	0	0.17361	70
0.506654	0.111412	1.24399	0	0.134939	71
0.517492	0.0969326	1.2543	0	0.101843	72
0.528343	0.0827633	1.26488	0	0.0740178	73
0.539193	0.0689119	1.2757	0	0.0511524	74
0.550025	0.0553863	1.2867	0	0.0329338	75
0.560822	0.0421943	1.29786	0	0.0190471	76
0.571566	0.0293442	1.30916	0	0.00917715	77
0.582236	0.0168448	1.32055	0	0.00300904	78
0.589252	0.00878594	1.33128	0	0.000813155	79
0.589408	0.00860931	1.34022	0	0.000780639	80
0.591364	0.00642965	1.34647	0	0.000434954	81
0.595207	0.00217805	1.34959	0	4.9879e-05	82
0.597181	0	1.34959	0	0	83
zone t="J = 6"
0.00491929	1.00001	1.13866	0.281856	11.441	0
0.00601502	0.99802	1.13751	0.308843	11.3957	1
0.0073099	0.995658	1.13618	0.339982	11.3422	2
0.00880398	0.99292	1.13469	0.374921	11.2802	3
0.0104973	0.989804	1.13306	0.413269	11.2099	4
0.0123901	0.986303	1.1313	0.454602	11.1311	5
0.0144825	0.982411	1.12943	0.498471	11.0437	6
0.0167746	0.978123	1.12747	0.544407	10.9478	7
0.0192668	0.973431	1.12546	0.591931	10.8432	8
0.0219593	0.96833	1.1234	0.640556	10.73	9
0.0248524	0.962812	1.12133	0.689798	10.6081	10
0.0279465	0.956871	1.11927	0.739183	10.4775	11
0.0312419	0.9505	1.11724	0.78825	10.3383	12
0.0347389	0.943694	1.11526	0.83656	10.1905	13
0.0384381	0.936446	1.11337	0.883698	10.0341	14
0.0423395	0.928754	1.11157	0.929282	9.86939	15
0.0464435	0.920612	1.1099	0.972965	9.69641	16
0.0507504	0.912021	1.10837	1.01444	9.51541	17
0.0552603	0.902978	1.107	1.05343	9.32664	18
0.0599732	0.893486	1.1058	1.08971	9.13041	19
0.064889	0.883548	1.10479	1.12311	8.92709	20
0.0700075	0.873169	1.10398	1.15347	8.71709	21
0.0753284	0.862355	1.10337	1.18071	8.50087	22
0.0808511	0.851116	1.10296	1.20477	8.27894	23
0.086575	0.839463	1.10277	1.22564	8.05183	24
0.092499	0.827406	1.10279	1.24333	7.82014	25
0.0986221	0.814961	1.10301	1.2579	7.58447	26
0.104943	0.802142	1.10344	1.26945	7.34542	27
0.11146	0.788964	1.10405	1.27807	7.10364	28
0.118171	0.775445	1.10486	1.28389	6.85975	29
0.125075	0.761601	1.10584	1.28705	6.6144	30
0.132168	0.747449	1.10698	1.28769	6.36818	31
0.139449	0.733007	1.10828	1.28596	6.12172	32
0.146914	0.718293	1.10973	1.28199	5.87559	33
0.154561	0.703322	1.11131	1.27588	5.63036	34
0.162386	0.688113	1.11302	1.26776	5.38657	35
0.170386	0.672681	1.11485	1.25767	5.14474	36
0.178557	0.657043	1.1168	1.24569	4.90536	37
0.186896	0.641215	1.11885	1.23181	4.6689	38
0.195399	0.625213	1.12102	1.21601	4.4358	39
0.20406	0.609051	1.12329	1.19824	4.20646	40
0.212878	0.592746	1.12566	1.17841	3.98129	41
0.221846	0.576311	1.12815	1.15637	3.76064	42
0.23096	0.559762	1.13074	1.13196	3.54486	43
0.240216	0.543113	1.13345	1.10498	3.33427	44
0.24961	0.526378	1.13627	1.07518	3.12914	45
0.259137	0.50957	1.13922	1.04229	2.92976	46
0.268791	0.492705	1.1423	1.006	2.73636	47
0.278568	0.475794	1.14551	0.965967	2.54916	48
0.288463	0.458852	1.14885	0.921834	2.36835	49
0.29847	0.44189	1.15234	0.8732	2.19412	50
0.308585	0.424923	1.15598	0.819637	2.02659	51
0.318801	0.407961	1.15978	0.760685	1.8659	52
0.329113	0.391017	1.16372	0.695846	1.71215	53
0.339514	0.374103	1.16783	0.624576	1.56541	54
0.349999	0.357229	1.17209	0.546275	1.42575	55
0.360559	0.340408	1.17652	0.460267	1.29319	56
0.371188	0.32365	1.18111	0.365778	1.16775	57
0.381896	0.306911	1.18438	0.3004	1.04901	58
0.39257	0.29032	1.18626	0.268412	0.937682	59
0.403195	0.273881	1.18855	0.224349	0.833577	60
0.413795	0.257556	1.19057	0.184931	0.736297	61
0.424408	0.241288	1.19316	0.128468	0.645416	62
0.435018	0.2251	1.19529	0.0807927	0.560971	63
0.445628	0.208973	1.19705	0.0393666	0.482756	64
0.456238	0.192917	1.19967	0	0.410742	65
0.466855	0.176983	1.20364	0	0.345042	66
0.477495	0.161225	1.20967	0	0.285729	67
0.488168	0.145696	1.21714	0	0.232795	68
0.498873	0.130429	1.22564	0	0.186099	69
0.509608	0.115447	1.23487	0	0.145417	70
0.520365	0.100767	1.24464	0	0.110478	71
0.531131	0.0864019	1.25482	0	0.0809866	72
0.541895	0.0723607	1.26531	0	0.0566291	73
0.552641	0.0586525	1.27606	0	0.0370858	74
0.563353	0.0452861	1.28701	0	0.0220326	75
0.574013	0.03227	1.29813	0	0.0111441	76
0.5846	0.0196131	1.30939	0	0.00409437	77
0.59157	0.0114486	1.32038	0	0.00138495	78
0.591744	0.0112486	1.33033	0	0.00133669	79
0.593698	0.00903638	1.33842	0	0.000861463	80
0.597528	0.00475116	1.34402	0	0.000237774	81
0.599498	0.00256261	1.34681	0	6.91393e-05	82
0.60181	0	1.34681	0	0	83
zone t="J = 7"
0.00579194	1.00002	1.13991	0.331856	11.4415	0
0.00644962	0.99883	1.13923	0.348025	11.4145	1
0.00774832	0.99648	1.13791	0.379194	11.3612	2
0.00924689	0.993757	1.13643	0.414166	11.2996	3
0.0109454	0.990658	1.1348	0.452552	11.2295	4
0.0128442	0.987175	1.13306	0.493926	11.151	5
0.0149432	0.983305	1.1312	0.537842	11.0641	6
0.0172429	0.979041	1.12926	0.583828	10.9686	7
0.0197435	0.974376	1.12726	0.631407	10.8645	8
0.0224454	0.969304	1.12522	0.68009	10.7518	9
0.0253489	0.963818	1.12317	0.729395	10.6305	10
0.0284545	0.957911	1.12112	0.778847	10.5006	11
0.0317625	0.951579	1.11911	0.827984	10.362	12
0.0352735	0.944813	1.11716	0.876367	10.2149	13
0.0389877	0.93761	1.11529	0.923583	10.0593	14
0.0429057	0.929965	1.11351	0.969249	9.89537	15
0.0470278	0.921875	1.11186	1.01302	9.72324	16
0.0513543	0.913338	1.11036	1.05458	9.54312	17
0.0558853	0.904354	1.10901	1.09366	9.35526	18
0.0606211	0.894924	1.10783	1.13004	9.15998	19
0.0655615	0.88505	1.10684	1.16354	8.95763	20
0.0707064	0.874738	1.10604	1.19401	8.74861	21
0.0760556	0.863995	1.10545	1.22135	8.53338	22
0.0816084	0.85283	1.10506	1.24553	8.31244	23
0.0873641	0.841251	1.10489	1.26651	8.08633	24
0.0933219	0.829273	1.10492	1.28433	7.8556	25
0.0994806	0.816907	1.10516	1.29904	7.62087	26
0.105839	0.804169	1.1056	1.31072	7.38273	27
0.112395	0.791074	1.10623	1.31949	7.14181	28
0.119147	0.777639	1.10704	1.32547	6.89874	29
0.126093	0.763879	1.10803	1.3288	6.65414	30
0.13323	0.749812	1.10919	1.32962	6.40862	31
0.140556	0.735455	1.1105	1.32808	6.16278	32
0.148069	0.720825	1.11195	1.32431	5.91721	33
0.155764	0.70594	1.11354	1.31842	5.67246	34
0.163638	0.690815	1.11526	1.31052	5.42907	35
0.171689	0.675467	1.1171	1.30068	5.18756	36
0.179912	0.659912	1.11905	1.28895	4.94842	37
0.188304	0.644166	1.12112	1.27534	4.71212	38
0.196861	0.628245	1.12329	1.25984	4.47908	39
0.205578	0.612164	1.12557	1.24238	4.24973	40
0.214451	0.595937	1.12795	1.22288	4.02446	41
0.223476	0.57958	1.13044	1.2012	3.80363	42
0.232648	0.563107	1.13305	1.17718	3.58758	43
0.241964	0.546533	1.13576	1.15062	3.37663	44
0.251418	0.52987	1.1386	1.12127	3.17107	45
0.261005	0.513134	1.14155	1.08886	2.97116	46
0.270721	0.496338	1.14464	1.05311	2.77717	47
0.280561	0.479494	1.14786	1.01366	2.58929	48
0.290519	0.462616	1.15122	0.970173	2.40773	49
0.300592	0.445718	1.15472	0.922251	2.23267	50
0.310772	0.42881	1.15837	0.869481	2.06425	51