VARIABLES = "X/R","R/R","Mach","Theta","Massflow","I",
TITLE = "RRC Contours"
text  x=5  y=93  t="MOC Grid Data"
zone t="J = 0"
0	1	1.1318	0	9.69057	0
4.3595e-05	0.999918	1.13183	0.00296124	9.68898	1
0.000174399	0.999671	1.13191	0.0118302	9.68422	2
0.000392524	0.99926	1.13206	0.0265677	9.67629	3
0.000698183	0.998685	1.13226	0.0471112	9.6652	4
0.00109169	0.997945	1.13252	0.0733754	9.65095	5
0.00157346	0.997042	1.13284	0.105252	9.63355	6
0.00214399	0.995974	1.13322	0.142611	9.61302	7
0.00280391	0.994744	1.13365	0.185301	9.58936	8
0.00355389	0.99335	1.13415	0.23315	9.5626	9
0.00439473	0.991794	1.1347	0.285964	9.53274	10
0.00532729	0.990076	1.13531	0.343532	9.49981	11
0.00635252	0.988195	1.13597	0.405625	9.46384	12
0.00747145	0.986154	1.1367	0.471995	9.42483	13
0.00868517	0.983952	1.13748	0.54238	9.38283	14
0.00999483	0.981589	1.13833	0.616503	9.33785	15
0.0114017	0.979068	1.13923	0.694073	9.28993	16
0.0129069	0.976387	1.14018	0.774788	9.23909	17
0.0145119	0.973549	1.1412	0.858336	9.18538	18
0.016218	0.970553	1.14226	0.944394	9.12883	19
0.0180265	0.967401	1.14339	1.03264	9.06947	20
0.019939	0.964094	1.14457	1.12273	9.00735	21
0.0219566	0.960631	1.1458	1.21433	8.94251	22
0.0240809	0.957015	1.14708	1.30711	8.87499	23
0.0263133	0.953247	1.14842	1.40072	8.80485	24
0.0286552	0.949327	1.1498	1.49484	8.73212	25
0.0311078	0.945256	1.15123	1.58912	8.65686	26
0.0336725	0.941036	1.1527	1.68324	8.57912	27
0.0363507	0.936667	1.15422	1.77688	8.49896	28
0.0391434	0.932152	1.15578	1.86974	8.41643	29
0.0420518	0.927491	1.15738	1.9615	8.3316	30
0.045077	0.922685	1.15901	2.05189	8.24451	31
0.04822	0.917736	1.16067	2.14064	8.15525	32
0.0514816	0.912645	1.16237	2.22748	8.06386	33
0.0548627	0.907414	1.16409	2.31218	7.97042	34
0.0583639	0.902044	1.16584	2.39451	7.875	35
0.0619858	0.896536	1.16761	2.47427	7.77766	36
0.0657287	0.890893	1.1694	2.55128	7.67848	37
0.0695931	0.885115	1.1712	2.62537	7.57753	38
0.0735791	0.879204	1.17301	2.69641	7.47488	39
0.0776867	0.873163	1.17484	2.76426	7.37062	40
0.0819159	0.866992	1.17667	2.82883	7.26482	41
0.0862664	0.860693	1.1785	2.89005	7.15755	42
0.0907378	0.854269	1.18034	2.94784	7.0489	43
0.0953297	0.84772	1.18217	3.00218	6.93895	44
0.100041	0.841049	1.184	3.05305	6.82779	45
0.104872	0.834258	1.18583	3.10045	6.71548	46
0.109821	0.827348	1.18764	3.14439	6.60213	47
0.114887	0.820322	1.18945	3.18491	6.4878	48
0.120069	0.813181	1.19125	3.22206	6.37259	49
0.125366	0.805927	1.19304	3.25591	6.25659	50
0.130777	0.798564	1.19481	3.28653	6.13987	51
0.136299	0.791091	1.19658	3.31402	6.02252	52
0.141932	0.783513	1.19833	3.33847	5.90462	53
0.147674	0.77583	1.20007	3.36	5.78627	54
0.153524	0.768046	1.20179	3.37871	5.66755	55
0.159479	0.760162	1.20351	3.39473	5.54854	56
0.165538	0.75218	1.20522	3.40818	5.42933	57
0.171699	0.744103	1.20692	3.41919	5.30999	58
0.177961	0.735933	1.20862	3.42788	5.19062	59
0.184321	0.727673	1.21032	3.43437	5.0713	60
0.190779	0.719325	1.21202	3.4388	4.9521	61
0.197331	0.710891	1.21372	3.44127	4.83312	62
0.203976	0.702374	1.21542	3.44192	4.71442	63
0.210713	0.693776	1.21714	3.44084	4.59609	64
0.217539	0.6851	1.21887	3.43814	4.47821	65
0.224454	0.676348	1.22062	3.43393	4.36085	66
0.231455	0.667523	1.2224	3.42829	4.24409	67
0.23854	0.658627	1.22419	3.42131	4.12801	68
0.245708	0.649663	1.22602	3.41306	4.01267	69
0.252958	0.640634	1.22789	3.40361	3.89815	70
0.260287	0.631543	1.22979	3.39302	3.78453	71
0.267695	0.622391	1.23174	3.38134	3.67186	72
0.27518	0.613182	1.23374	3.36862	3.56022	73
0.28274	0.603919	1.23579	3.35488	3.44967	74
0.290375	0.594604	1.23791	3.34015	3.34028	75
0.298082	0.58524	1.24008	3.32446	3.23211	76
0.305861	0.575829	1.24232	3.30783	3.12523	77
0.31371	0.566376	1.24464	3.29024	3.01968	78
0.321628	0.556883	1.24703	3.27172	2.91554	79
0.329614	0.547352	1.2495	3.25226	2.81284	80
0.337667	0.537786	1.25206	3.23184	2.71166	81
0.345785	0.528189	1.25471	3.21046	2.61204	82
0.353967	0.518563	1.25744	3.18811	2.51402	83
0.362212	0.508912	1.26028	3.16476	2.41766	84
0.37052	0.499238	1.26321	3.1404	2.32301	85
0.378887	0.489545	1.26624	3.11502	2.2301	86
0.387314	0.479835	1.26937	3.08858	2.13898	87
0.395799	0.470112	1.27262	3.06108	2.04968	88
0.40434	0.460379	1.27596	3.03249	1.96225	89
0.412936	0.450638	1.27942	3.00278	1.87671	90
0.421586	0.440894	1.28299	2.97196	1.7931	91
0.430288	0.431149	1.28667	2.93999	1.71145	92
0.43904	0.421406	1.29046	2.90687	1.63178	93
0.447841	0.41167	1.29436	2.87258	1.55411	94
0.456688	0.401942	1.29838	2.83711	1.47847	95
0.46558	0.392226	1.3025	2.80046	1.40488	96
0.474515	0.382526	1.30674	2.76261	1.33335	97
0.48349	0.372845	1.31109	2.72358	1.26389	98
0.492503	0.363186	1.31554	2.68336	1.19652	99
0.501551	0.353553	1.32011	2.64196	1.13124	100
0.510632	0.343949	1.32477	2.59937	1.06805	101
0.519742	0.334378	1.32954	2.55561	1.00697	102
0.52888	0.324842	1.33441	2.5107	0.947981	103
0.538041	0.315346	1.33937	2.46464	0.891089	104
0.547223	0.305893	1.34443	2.41746	0.836283	105
0.556422	0.296487	1.34957	2.36916	0.783557	106
0.565634	0.287131	1.3548	2.31978	0.732897	107
0.574855	0.277828	1.36011	2.26934	0.684289	108
0.584081	0.268584	1.3655	2.21786	0.637716	109
0.593308	0.2594	1.37096	2.16538	0.593158	110
0.602532	0.250281	1.37648	2.11191	0.550593	111
0.611747	0.241231	1.38206	2.0575	0.509995	112
0.620949	0.232254	1.38771	2.00218	0.471338	113
0.630133	0.223353	1.3934	1.94598	0.434592	114
0.639294	0.214533	1.39913	1.88895	0.399725	115
0.648425	0.205797	1.4049	1.83112	0.366703	116
0.657522	0.19715	1.41071	1.77255	0.335489	117
0.666578	0.188595	1.41653	1.71326	0.306044	118
0.675587	0.180137	1.42238	1.65333	0.27833	119
0.684542	0.17178	1.42824	1.59278	0.252304	120
0.693438	0.163529	1.4341	1.53169	0.227921	121
0.702266	0.155388	1.43996	1.47011	0.205136	122
0.711021	0.147362	1.44581	1.4081	0.183902	123
0.719695	0.139455	1.45164	1.34572	0.164171	124
0.728279	0.131672	1.45745	1.28306	0.145893	125
0.736767	0.124019	1.46322	1.22017	0.129016	126
0.74515	0.116499	1.46896	1.15715	0.113489	127
0.753419	0.10912	1.47464	1.09408	0.0992582	128
0.761566	0.101886	1.48027	1.03104	0.0862694	129
0.769582	0.0948022	1.48583	0.968147	0.0744679	130
0.777457	0.0878758	1.49132	0.905492	0.063798	131
0.785182	0.0811128	1.49673	0.843192	0.0542037	132
0.788963	0.0745198	1.49924	0.777354	0.0456894	133
0.789884	0.0681039	1.49965	0.710237	0.0381503	134
0.79033	0.0618726	1.49975	0.644773	0.0314851	135
0.790762	0.0558341	1.49987	0.581497	0.0256367	136
0.791178	0.0499971	1.5	0.520462	0.0205545	137
0.791378	0.044371	1.5	0.46161	0.0161884	138
0.791474	0.0389664	1.49994	0.405131	0.0124849	139
0.791657	0.033795	1.49997	0.351229	0.00939056	140
0.791744	0.0288697	1.49995	0.29992	0.0068528	141
0.791827	0.0242056	1.49994	0.25139	0.00481737	142
0.791981	0.0198201	1.5	0.20582	0.00322979	143
0.792017	0.0157341	1.49999	0.163357	0.00203537	144
0.79205	0.0119729	1.49998	0.124291	0.00117858	145
0.79208	0.00856924	1.49998	0.0889506	0.000603727	146
0.792107	0.00556695	1.49999	0.0577841	0.000254793	147
0.792118	0.00303068	1.49999	0.0314573	7.55149e-05	148
0.792126	0.0010716	1.5	0.0111227	9.44088e-06	149
0.792131	0	1.5	0	0	150
zone t="J = 1"
8.7225e-05	1	1.13227	0.0130828	9.71869	0
0.000218151	0.999754	1.13212	0.0165376	9.71394	1
0.000436333	0.999343	1.13187	0.0222746	9.70601	2
0.000741745	0.998767	1.13151	0.0302631	9.69491	3
0.00113436	0.998026	1.13106	0.0404611	9.68063	4
0.00161416	0.997119	1.13052	0.0528154	9.66316	5
0.0021811	0.996045	1.12987	0.0672618	9.6425	6
0.00283517	0.994803	1.12914	0.0837259	9.61863	7
0.00357633	0.993393	1.12833	0.102123	9.59154	8
0.00440456	0.991813	1.12743	0.12236	9.56123	9
0.00531984	0.990061	1.12645	0.144334	9.52767	10
0.00632213	0.988137	1.1254	0.167934	9.49085	11
0.00741142	0.986038	1.12428	0.193043	9.45076	12
0.00858767	0.983764	1.1231	0.219538	9.40739	13
0.00985088	0.981311	1.12186	0.247288	9.36071	14
0.011201	0.978678	1.12057	0.276158	9.31071	15
0.0126381	0.975863	1.11924	0.306011	9.25738	16
0.014162	0.972865	1.11787	0.336706	9.2007	17
0.0157729	0.969679	1.11646	0.368099	9.14066	18
0.0174706	0.966306	1.11504	0.400047	9.07725	19
0.0192552	0.962742	1.11359	0.432404	9.01046	20
0.0211266	0.958984	1.11214	0.465028	8.94028	21
0.0230848	0.955032	1.11069	0.497776	8.86671	22
0.0251299	0.950882	1.10924	0.530509	8.78976	23
0.0272618	0.946532	1.1078	0.563092	8.70942	24
0.0294804	0.941981	1.10638	0.595391	8.62572	25
0.0317857	0.937226	1.10499	0.627281	8.53866	26
0.0341778	0.932266	1.10364	0.658639	8.44827	27
0.0366564	0.927099	1.10232	0.689349	8.35458	28
0.0392217	0.921725	1.10105	0.719304	8.25763	29
0.0418736	0.916141	1.09984	0.748401	8.15746	30
0.0446119	0.910348	1.09869	0.776546	8.05414	31
0.0474365	0.904344	1.0976	0.803652	7.94772	32
0.0503475	0.898131	1.09658	0.829641	7.83829	33
0.0533446	0.891708	1.09564	0.854443	7.72592	34
0.0564278	0.885076	1.09478	0.877997	7.6107	35
0.0595969	0.878236	1.09401	0.90025	7.49275	36
0.0628518	0.871191	1.09332	0.921158	7.37217	37
0.0661923	0.863942	1.09273	0.940684	7.24909	38
0.0696182	0.856491	1.09223	0.958802	7.12363	39
0.0731294	0.848843	1.09182	0.975493	6.99595	40
0.0767256	0.840999	1.09151	0.990745	6.86618	41
0.0804065	0.832964	1.0913	1.00456	6.73447	42
0.0841719	0.824742	1.09118	1.01693	6.601	43
0.0880216	0.816338	1.09116	1.02787	6.46591	44
0.0919552	0.807756	1.09124	1.03741	6.32938	45
0.0959724	0.799001	1.09141	1.04556	6.19158	46
0.100073	0.790078	1.09167	1.05234	6.05268	47
0.104256	0.780993	1.09202	1.05781	5.91286	48
0.108522	0.771751	1.09245	1.06197	5.77228	49
0.112869	0.762357	1.09297	1.06489	5.63111	50
0.117298	0.752818	1.09358	1.06659	5.48953	51
0.121808	0.743138	1.09425	1.06712	5.34769	52
0.126398	0.733324	1.09501	1.06652	5.20577	53
0.131068	0.723381	1.09583	1.06482	5.06393	54
0.135817	0.713315	1.09672	1.06208	4.92231	55
0.140644	0.70313	1.09768	1.05832	4.78106	56
0.145549	0.692833	1.0987	1.05357	4.64035	57
0.15053	0.682429	1.09977	1.04787	4.5003	58
0.155587	0.671923	1.10091	1.04124	4.36105	59
0.160719	0.66132	1.1021	1.03371	4.22274	60
0.165925	0.650625	1.10333	1.02527	4.08548	61
0.171203	0.639844	1.10462	1.01594	3.94942	62
0.176554	0.62898	1.10596	1.00572	3.81465	63
0.181976	0.61804	1.10735	0.994601	3.6813	64
0.187467	0.607028	1.10879	0.982569	3.54947	65
0.193027	0.595949	1.11027	0.969601	3.41927	66
0.198654	0.584807	1.11179	0.955667	3.29079	67
0.204347	0.573607	1.11337	0.940727	3.16413	68
0.210106	0.562353	1.11499	0.924737	3.03938	69
0.215928	0.551051	1.11666	0.907642	2.91662	70
0.221812	0.539704	1.11838	0.889378	2.79594	71
0.227757	0.528317	1.12015	0.869877	2.67741	72
0.233762	0.516895	1.12197	0.84906	2.5611	73
0.239825	0.505442	1.12384	0.826842	2.44709	74
0.245945	0.493962	1.12577	0.803128	2.33543	75
0.252121	0.482459	1.12775	0.777819	2.22618	76
0.25835	0.470938	1.12979	0.750805	2.1194	77
0.264632	0.459402	1.13189	0.721971	2.01515	78
0.270965	0.447857	1.13405	0.691193	1.91346	79
0.277347	0.436305	1.13627	0.65834	1.81437	80
0.283776	0.424751	1.13856	0.623271	1.71793	81
0.290252	0.413199	1.14091	0.585839	1.62417	82
0.296773	0.401653	1.14333	0.545885	1.53311	83
0.303336	0.390115	1.14581	0.503242	1.44479	84
0.30994	0.378591	1.14837	0.457731	1.35921	85
0.316583	0.367083	1.15099	0.409158	1.27641	86
0.323263	0.355595	1.15368	0.357317	1.19638	87
0.329979	0.344131	1.15644	0.301981	1.11915	88
0.336727	0.332693	1.15928	0.242905	1.04471	89
0.343507	0.321286	1.16218	0.179816	0.97307	90
0.350314	0.309912	1.16516	0.112411	0.904224	91
0.357148	0.298575	1.16821	0.0403493	0.838168	92
0.364043	0.287221	1.17118	0	0.774564	93
0.370975	0.275913	1.1747	0	0.713736	94
0.377884	0.264783	1.17941	0	0.656317	95
0.384811	0.253794	1.1848	0	0.602018	96
0.391775	0.242926	1.19059	0	0.550663	97
0.398784	0.232171	1.19664	0	0.502134	98
0.405842	0.221523	1.20289	0	0.456338	99
0.41295	0.210981	1.20928	0	0.413199	100
0.420107	0.200544	1.21582	0	0.372646	101
0.427311	0.190213	1.22247	0	0.334611	102
0.43456	0.179989	1.22924	0	0.299028	103
0.441851	0.169873	1.23611	0	0.265831	104
0.449182	0.159865	1.24309	0	0.234953	105
0.456549	0.149966	1.25017	0	0.20633	106
0.463951	0.140179	1.25733	0	0.179895	107
0.471382	0.130504	1.26459	0	0.155582	108
0.47884	0.120943	1.27193	0	0.133325	109
0.48632	0.111498	1.27934	0	0.113058	110
0.493819	0.102169	1.28683	0	0.0947125	111
0.501333	0.0929592	1.29438	0	0.0782231	112
0.508857	0.0838699	1.30199	0	0.0635223	113
0.516387	0.0749029	1.30965	0	0.0505428	114
0.523917	0.0660605	1.31736	0	0.0392172	115
0.531443	0.0573447	1.32511	0	0.0294777	116
0.538959	0.0487577	1.33289	0	0.0212566	117
0.546461	0.040302	1.34069	0	0.0144858	118
0.553941	0.03198	1.34852	0	0.00909733	119
0.561394	0.0237942	1.35635	0	0.00502283	120
0.568814	0.0157476	1.36419	0	0.00219403	121
0.576194	0.00784281	1.37202	0	0.000542561	122
0.583514	9.92072e-05	1.38012	0	8.6636e-08	123
0.583608	0	1.38012	0	0	124
zone t="J = 2"
0.00034926	1	1.13371	0.0523852	9.71968	0
0.000568215	0.999591	1.13345	0.0581287	9.71178	1
0.000874711	0.999018	1.1331	0.0661265	9.70073	2
0.00126873	0.99828	1.13265	0.0763363	9.6865	3
0.00175024	0.997377	1.13211	0.088705	9.66911	4
0.00231922	0.996308	1.13147	0.103169	9.64853	5
0.00297564	0.995071	1.13075	0.119652	9.62476	6
0.0037195	0.993668	1.12993	0.138072	9.59778	7
0.00455075	0.992094	1.12904	0.158333	9.5676	8
0.0054694	0.990351	1.12807	0.180334	9.53418	9
0.00647541	0.988435	1.12703	0.203965	9.49752	10
0.00756877	0.986346	1.12591	0.229107	9.45761	11
0.00874946	0.984082	1.12474	0.255636	9.41442	12
0.0100175	0.981641	1.12351	0.283423	9.36795	13
0.0113728	0.979021	1.12223	0.312333	9.31817	14
0.0128155	0.97622	1.12091	0.342229	9.26508	15
0.0143455	0.973236	1.11955	0.372969	9.20866	16
0.0159628	0.970067	1.11815	0.404409	9.1489	17
0.0176674	0.966711	1.11674	0.436406	9.08578	18
0.0194593	0.963165	1.11531	0.468815	9.0193	19
0.0213385	0.959427	1.11387	0.501492	8.94946	20
0.0233051	0.955496	1.11243	0.534296	8.87625	21
0.0253589	0.951369	1.11099	0.567088	8.79968	22
0.0275001	0.947043	1.10957	0.599731	8.71974	23
0.0297286	0.942518	1.10816	0.632092	8.63646	24
0.0320444	0.93779	1.10679	0.664046	8.54984	25
0.0344475	0.932859	1.10544	0.69547	8.45992	26
0.0369378	0.927723	1.10414	0.726249	8.36672	27
0.0395153	0.922381	1.10289	0.756274	8.27028	28
0.0421801	0.916832	1.10169	0.785442	8.17065	29
0.0449319	0.911074	1.10055	0.81366	8.06788	30
0.0477709	0.905109	1.09948	0.840842	7.96204	31
0.0506968	0.898935	1.09848	0.866908	7.8532	32
0.0537096	0.892553	1.09755	0.891789	7.74144	33
0.0568092	0.885965	1.09671	0.915423	7.62686	34
0.0599956	0.87917	1.09595	0.937758	7.50956	35
0.0632684	0.872172	1.09528	0.95875	7.38964	36
0.0666276	0.864971	1.0947	0.978362	7.26723	37
0.0700731	0.857571	1.09421	0.996568	7.14246	38
0.0736046	0.849974	1.09382	1.01335	7.01546	39
0.0772219	0.842183	1.09352	1.02869	6.88638	40
0.0809247	0.834203	1.09332	1.0426	6.75537	41
0.0847129	0.826037	1.09321	1.05507	6.62259	42
0.0885861	0.81769	1.0932	1.06611	6.48819	43
0.092544	0.809166	1.09329	1.07575	6.35235	44
0.0965863	0.80047	1.09347	1.08401	6.21522	45
0.100713	0.791607	1.09374	1.0909	6.07698	46
0.104922	0.782583	1.09409	1.09648	5.9378	47
0.109215	0.773402	1.09454	1.10077	5.79785	48
0.113591	0.76407	1.09507	1.1038	5.65729	49
0.118049	0.754593	1.09568	1.10563	5.51629	50
0.122588	0.744976	1.09636	1.10629	5.37502	51
0.127208	0.735225	1.09712	1.10583	5.23364	52
0.131909	0.725345	1.09795	1.10428	5.0923	53
0.136689	0.715341	1.09885	1.10168	4.95116	54
0.141548	0.705219	1.09981	1.09807	4.81037	55
0.146485	0.694985	1.10083	1.09349	4.67007	56
0.151499	0.684643	1.10192	1.08796	4.5304	57
0.15659	0.674199	1.10306	1.08151	4.39151	58
0.161756	0.663657	1.10425	1.07415	4.25351	59
0.166996	0.653024	1.10549	1.0659	4.11654	60
0.17231	0.642304	1.10679	1.05677	3.98073	61
0.177696	0.631501	1.10813	1.04676	3.84617	62
0.183154	0.620621	1.10952	1.03586	3.713	63
0.188681	0.609668	1.11096	1.02406	3.58131	64
0.194278	0.598647	1.11245	1.01133	3.45122	65
0.199943	0.587563	1.11398	0.997644	3.32281	66
0.205674	0.576421	1.11557	0.982968	3.19618	67
0.21147	0.565224	1.11719	0.967253	3.07143	68
0.21733	0.553977	1.11887	0.950448	2.94864	69
0.223254	0.542686	1.12059	0.93249	2.82789	70
0.229238	0.531353	1.12237	0.913311	2.70925	71
0.235283	0.519984	1.1242	0.892835	2.5928	72
0.241386	0.508583	1.12608	0.870976	2.47861	73
0.247546	0.497155	1.12801	0.847644	2.36674	74
0.253762	0.485702	1.13	0.82274	2.25726	75
0.260033	0.474231	1.13205	0.796158	2.15021	76
0.266356	0.462744	1.13415	0.767783	2.04564	77
0.272731	0.451246	1.13632	0.737496	1.94362	78
0.279156	0.43974	1.13855	0.705168	1.84416	79
0.285628	0.428231	1.14084	0.670663	1.74733	80
0.292148	0.416723	1.1432	0.633837	1.65314	81
0.298712	0.405219	1.14563	0.594536	1.56163	82
0.305319	0.393724	1.14812	0.5526	1.47282	83
0.311968	0.382239	1.15068	0.507853	1.38674	84
0.318656	0.370771	1.15331	0.460111	1.30341	85
0.325382	0.359321	1.15601	0.409175	1.22283	86
0.332144	0.347893	1.15879	0.354828	1.14502	87
0.338939	0.336491	1.16163	0.296834	1.06998	88
0.345766	0.325118	1.16454	0.234935	0.997723	89
0.352621	0.313777	1.16753	0.168842	0.928239	90
0.359503	0.302472	1.17059	0.0982317	0.861527	91
0.36644	0.291145	1.17292	0.0430167	0.797234	92
0.373395	0.279839	1.17469	0	0.735571	93
0.380305	0.268669	1.17706	0	0.677087	94
0.387217	0.257602	1.18094	0	0.621544	95
0.394155	0.246636	1.18579	0	0.568877	96
0.401133	0.235772	1.19124	0	0.51903	97
0.408156	0.225011	1.19709	0	0.471948	98
0.415227	0.214356	1.20322	0	0.427573	99
0.422345	0.203806	1.20955	0	0.385841	100
0.429509	0.193365	1.21604	0	0.346688	101
0.436718	0.183033	1.22267	0	0.310047	102
0.443969	0.172811	1.22942	0	0.275853	103
0.451259	0.1627	1.23628	0	0.244037	104
0.458586	0.152702	1.24325	0	0.214533	105
0.465946	0.142817	1.25032	0	0.187272	106
0.473336	0.133048	1.25748	0	0.162185	107
0.480752	0.123395	1.26473	0	0.139205	108
0.488192	0.113861	1.27206	0	0.118264	109
0.49565	0.104446	1.27947	0	0.0992913	110
0.503123	0.0951523	1.28695	0	0.0822195	111
0.510606	0.085982	1.29449	0	0.0669793	112
0.518095	0.0769368	1.30209	0	0.0535014	113
0.525585	0.0680187	1.30975	0	0.0417164	114
0.533071	0.0592297	1.31745	0	0.031555	115
0.540548	0.0505722	1.32519	0	0.0229474	116
0.54801	0.0420483	1.33296	0	0.0158239	117
0.555452	0.0336607	1.34076	0	0.0101146	118
0.562867	0.0254117	1.34857	0	0.00574966	119
0.570249	0.0173042	1.3564	0	0.002659	120
0.577593	0.00934102	1.36422	0	0.00077262	121
0.584876	0.00154074	1.37219	0	2.09414e-05	122
0.584973	0.00143887	1.37616	0	1.82612e-05	123
0.586333	0	1.37616	0	0	124
zone t="J = 3"
0.000787231	1	1.13609	0.118076	9.72016	0
0.00109551	0.999432	1.13574	0.126089	9.70918	1
0.00149183	0.998699	1.1353	0.136318	9.69505	2
0.00197616	0.997802	1.13476	0.148711	9.67777	3
0.0025485	0.996741	1.13413	0.163202	9.65733	4
0.00320881	0.995514	1.13341	0.179718	9.63372	5
0.00395709	0.99412	1.13261	0.198174	9.60693	6
0.00479332	0.992558	1.13172	0.218476	9.57695	7
0.00571751	0.990828	1.13076	0.240522	9.54376	8
0.00672963	0.988927	1.12973	0.264202	9.50736	9
0.00782969	0.986853	1.12863	0.289397	9.46773	10
0.00901769	0.984607	1.12747	0.315984	9.42485	11
0.0102936	0.982184	1.12625	0.343832	9.37871	12
0.0116575	0.979585	1.12499	0.372808	9.32929	13
0.0131094	0.976806	1.12368	0.402773	9.27659	14
0.0146493	0.973846	1.12233	0.433586	9.22059	15
0.0162771	0.970703	1.12096	0.465103	9.16128	16
0.017993	0.967375	1.11956	0.497181	9.09864	17
0.019797	0.963859	1.11815	0.529674	9.03268	18
0.021689	0.960154	1.11673	0.56244	8.96338	19
0.0236692	0.956257	1.11531	0.595336	8.89075	20
0.0257375	0.952166	1.11389	0.628223	8.81479	21
0.0278939	0.94788	1.11249	0.660964	8.7355	22
0.0301386	0.943396	1.11111	0.693428	8.6529	23
0.0324715	0.938713	1.10976	0.725487	8.567	24
0.0348926	0.933829	1.10844	0.75702	8.47784	25
0.0374019	0.928742	1.10716	0.78791	8.38543	26
0.0399995	0.923452	1.10593	0.818049	8.28981	27
0.0426853	0.917958	1.10476	0.847334	8.19104	28
0.0454593	0.912258	1.10364	0.875673	8.08917	29
0.0483215	0.906353	1.1026	0.902977	7.98425	30
0.0512718	0.900243	1.10162	0.929169	7.87637	31
0.0543102	0.893928	1.10072	0.954178	7.76559	32
0.0574366	0.887409	1.0999	0.977944	7.65202	33
0.0606509	0.880687	1.09916	1.00041	7.53575	34
0.063953	0.873763	1.09851	1.02154	7.41689	35
0.0673427	0.86664	1.09795	1.0413	7.29556	36
0.0708199	0.85932	1.09748	1.05965	7.17188	37
0.0743844	0.851806	1.09711	1.07657	7.04598	38
0.078036	0.844101	1.09683	1.09207	6.91801	39
0.0817745	0.836208	1.09665	1.10613	6.78812	40
0.0855995	0.828132	1.09656	1.11876	6.65644	41
0.0895109	0.819876	1.09657	1.12997	6.52315	42
0.0935082	0.811445	1.09667	1.13978	6.3884	43
0.0975912	0.802844	1.09687	1.1482	6.25235	44
0.101759	0.794077	1.09715	1.15528	6.11517	45
0.106012	0.78515	1.09752	1.16104	5.97702	46
0.11035	0.776067	1.09798	1.16552	5.83807	47
0.114771	0.766834	1.09852	1.16876	5.69849	48
0.119275	0.757457	1.09914	1.1708	5.55844	49
0.123862	0.74794	1.09984	1.17167	5.41807	50
0.128531	0.738289	1.10061	1.17143	5.27755	51
0.133281	0.728509	1.10145	1.17011	5.13703	52
0.138112	0.718606	1.10236	1.16776	4.99667	53
0.143023	0.708585	1.10333	1.1644	4.8566	54
0.148013	0.698451	1.10436	1.16008	4.71698	55
0.153081	0.688209	1.10545	1.15482	4.57794	56
0.158226	0.677865	1.1066	1.14865	4.43962	57
0.163447	0.667423	1.1078	1.14159	4.30215	58
0.168743	0.656888	1.10906	1.13366	4.16564	59
0.174114	0.646266	1.11036	1.12485	4.03024	60
0.179558	0.63556	1.11171	1.11518	3.89604	61
0.185074	0.624777	1.11311	1.10463	3.76317	62
0.19066	0.61392	1.11456	1.09319	3.63172	63
0.196317	0.602994	1.11606	1.08085	3.50181	64
0.202042	0.592003	1.1176	1.06757	3.37353	65
0.207834	0.580953	1.11919	1.05331	3.24698	66
0.213692	0.569848	1.12083	1.03804	3.12224	67
0.219615	0.558692	1.12252	1.0217	2.99941	68
0.225601	0.54749	1.12425	1.00423	2.87856	69
0.231649	0.536245	1.12604	0.98557	2.75977	70
0.237758	0.524963	1.12788	0.965638	2.64311	71
0.243926	0.513647	1.12977	0.944354	2.52866	72
0.250152	0.502302	1.13171	0.92163	2.41648	73
0.256435	0.490932	1.13371	0.89737	2.30662	74
0.262773	0.479541	1.13577	0.871472	2.19915	75
0.269164	0.468132	1.13789	0.843827	2.09411	76
0.275607	0.456711	1.14007	0.814317	1.99156	77
0.2821	0.445281	1.14231	0.78282	1.89153	78
0.288643	0.433846	1.14462	0.749205	1.79408	79
0.295233	0.42241	1.14699	0.713334	1.69922	80
0.301868	0.410976	1.14943	0.675062	1.607	81
0.308548	0.399548	1.15194	0.634235	1.51744	82
0.315269	0.38813	1.15451	0.590688	1.43056	83
0.322031	0.376726	1.15716	0.544247	1.34639	84
0.328832	0.365338	1.15987	0.494725	1.26493	85
0.335669	0.35397	1.16266	0.441919	1.18621	86
0.34254	0.342626	1.16552	0.38561	1.11023	87
0.349443	0.33131	1.16845	0.325559	1.03698	88
0.356377	0.320023	1.17145	0.261499	0.966486	89
0.363337	0.30877	1.17453	0.193132	0.898732	90
0.370348	0.297505	1.17689	0.140183	0.833423	91
0.377373	0.286267	1.1787	0.0993823	0.770759	92
0.384344	0.275154	1.17994	0.0715893	0.711207	93
0.391301	0.264098	1.1819	0.0239255	0.654349	94
0.398262	0.253094	1.18433	0	0.600132	95
0.405241	0.24215	1.18779	0	0.548545	96
0.412255	0.231281	1.19246	0	0.499625	97
0.41931	0.220502	1.19786	0	0.453399	98
0.426408	0.209824	1.20373	0	0.409853	99
0.43355	0.199251	1.20991	0	0.368943	100
0.440735	0.188789	1.21632	0	0.330615	101
0.447962	0.178438	1.2229	0	0.294807	102
0.455227	0.168201	1.22962	0	0.261452	103
0.462528	0.15808	1.23647	0	0.230482	104
0.469862	0.148075	1.24342	0	0.201826	105
0.477226	0.138189	1.25048	0	0.175416	106
0.484616	0.128423	1.25763	0	0.151179	107
0.492029	0.118778	1.26487	0	0.129047	108
0.499461	0.109256	1.2722	0	0.108946	109
0.506907	0.0998582	1.2796	0	0.0908071	110
0.514364	0.0905869	1.28707	0	0.0745578	111
0.521827	0.0814437	1.2946	0	0.060127	112
0.529291	0.0724307	1.3022	0	0.0474432	113
0.536751	0.0635498	1.30985	0	0.0364346	114
0.544202	0.0548033	1.31754	0	0.0270295	115
0.551639	0.0461934	1.32527	0	0.0191561	116
0.559056	0.0377226	1.33303	0	0.0127424	117
0.566446	0.0293934	1.34082	0	0.00771662	118
0.573805	0.0212085	1.34863	0	0.00400667	119
0.581124	0.0131706	1.35644	0	0.00154063	120
0.588385	0.00529796	1.36433	0	0.000248061	121
0.588494	0.00518101	1.37025	0	0.000237203	122
0.589854	0.0037329	1.37321	0	0.000123092	123
0.593367	0	1.37321	0	0	124
zone t="J = 4"
0.00140301	1	1.13943	0.210436	9.72022	0
0.00180249	0.999277	1.13899	0.220692	9.70623	1
0.00229071	0.998389	1.13846	0.233117	9.6891	2
0.00286765	0.997338	1.13784	0.247647	9.66885	3
0.0035333	0.996123	1.13713	0.264207	9.64546	4
0.00428767	0.994743	1.13633	0.282713	9.61892	5
0.00513075	0.993197	1.13546	0.303071	9.58922	6
0.00606254	0.991484	1.13451	0.325179	9.55635	7
0.00708307	0.989603	1.1335	0.348925	9.52029	8
0.00819233	0.987551	1.13241	0.374193	9.48104	9
0.00939036	0.985328	1.13127	0.400858	9.43858	10
0.0106772	0.982931	1.13007	0.428791	9.39289	11
0.0120528	0.980359	1.12883	0.457856	9.34396	12
0.0135173	0.977611	1.12754	0.487916	9.29179	13
0.0150707	0.974684	1.12622	0.518829	9.23635	14
0.0167131	0.971576	1.12487	0.550451	9.17765	15
0.0184444	0.968285	1.12349	0.58264	9.11566	16
0.0202649	0.96481	1.12211	0.615249	9.05039	17
0.0221744	0.961148	1.12071	0.648135	8.98182	18
0.0241732	0.957297	1.11932	0.681156	8.90997	19
0.0262612	0.953256	1.11793	0.714173	8.83483	20
0.0284385	0.949022	1.11656	0.747049	8.75641	21
0.0307052	0.944594	1.11521	0.779652	8.67472	22
0.0330614	0.939969	1.11389	0.811855	8.58979	23
0.0355071	0.935148	1.1126	0.843535	8.50162	24
0.0380423	0.930127	1.11135	0.874577	8.41027	25
0.0406671	0.924907	1.11016	0.904872	8.31575	26
0.0433816	0.919486	1.10901	0.934317	8.21813	27
0.0461857	0.913863	1.10793	0.962819	8.11744	28
0.0490795	0.908039	1.10691	0.990291	8.01376	29
0.0520629	0.902014	1.10597	1.01665	7.90714	30
0.055136	0.895787	1.1051	1.04184	7.79768	31
0.0582986	0.88936	1.10431	1.06579	7.68545	32
0.0615508	0.882734	1.1036	1.08844	7.57055	33
0.0648924	0.87591	1.10298	1.10975	7.45309	34
0.0683233	0.868889	1.10245	1.1297	7.33318	35
0.0718434	0.861676	1.10201	1.14825	7.21094	36
0.0754525	0.854271	1.10167	1.16538	7.0865	37
0.0791504	0.846678	1.10142	1.18108	6.96	38
0.0829368	0.838901	1.10126	1.19535	6.83157	39
0.0868116	0.830943	1.1012	1.2082	6.70136	40
0.0907744	0.822807	1.10123	1.21963	6.56952	41
0.0948249	0.814499	1.10135	1.22967	6.43622	42
0.0989627	0.806023	1.10157	1.23833	6.30159	43
0.103187	0.797383	1.10187	1.24566	6.16581	44
0.107498	0.788583	1.10226	1.25167	6.02904	45
0.111895	0.77963	1.10274	1.25642	5.89142	46
0.116378	0.770528	1.1033	1.25992	5.75314	47
0.120945	0.761282	1.10393	1.26224	5.61433	48
0.125596	0.751898	1.10464	1.26341	5.47517	49
0.13033	0.74238	1.10543	1.26347	5.3358	50
0.135148	0.732733	1.10628	1.26247	5.19638	51
0.140047	0.722963	1.1072	1.26044	5.05705	52
0.145027	0.713076	1.10819	1.25743	4.91796	53
0.150088	0.703075	1.10923	1.25346	4.77925	54
0.155228	0.692966	1.11034	1.24857	4.64106	55
0.160446	0.682754	1.1115	1.24279	4.50352	56
0.165742	0.672444	1.11271	1.23613	4.36675	57
0.171113	0.662041	1.11398	1.22861	4.23089	58
0.176561	0.651549	1.1153	1.22023	4.09605	59
0.182082	0.640974	1.11666	1.21101	3.96235	60
0.187677	0.630319	1.11808	1.20094	3.8299	61
0.193343	0.61959	1.11954	1.18999	3.6988	62
0.19908	0.60879	1.12105	1.17816	3.56916	63
0.204886	0.597926	1.1226	1.16542	3.44108	64
0.210761	0.587	1.12421	1.15172	3.31466	65
0.216702	0.576017	1.12586	1.13704	3.18997	66
0.22271	0.564983	1.12756	1.12132	3.06711	67
0.228781	0.5539	1.12931	1.1045	2.94617	68
0.234915	0.542774	1.13111	1.08651	2.82721	69
0.241111	0.531608	1.13296	1.0673	2.71031	70
0.247367	0.520407	1.13487	1.04677	2.59554	71
0.253682	0.509175	1.13683	1.02484	2.48297	72
0.260055	0.497915	1.13885	1.00143	2.37266	73
0.266483	0.486633	1.14093	0.976428	2.26466	74
0.272966	0.475331	1.14306	0.949734	2.15902	75
0.279501	0.464015	1.14526	0.921236	2.05581	76
0.286089	0.452687	1.14752	0.890819	1.95506	77
0.292726	0.441352	1.14985	0.858358	1.85681	78
0.299411	0.430013	1.15224	0.823724	1.7611	79
0.306143	0.418675	1.15469	0.786779	1.66796	80
0.31292	0.40734	1.15722	0.74738	1.57743	81
0.31974	0.396012	1.15982	0.705374	1.48952	82
0.326602	0.384696	1.16248	0.660599	1.40427	83
0.333503	0.373393	1.16522	0.612882	1.32168	84
0.340441	0.362108	1.16803	0.56204	1.24176	85
0.347416	0.350845	1.17091	0.507872	1.16454	86
0.354423	0.339605	1.17386	0.450161	1.09002	87
0.361462	0.328394	1.17689	0.388666	1.0182	88
0.36853	0.317213	1.17998	0.323122	0.949084	89
0.37564	0.306031	1.18239	0.272999	0.882446	90
0.382761	0.294886	1.18426	0.235054	0.818472	91
0.389821	0.283874	1.18557	0.210099	0.757641	92
0.396877	0.272906	1.1876	0.165809	0.699407	93
0.403931	0.261985	1.18937	0.126514	0.643752	94
0.410991	0.251092	1.19116	0.0848719	0.590558	95
0.418067	0.240218	1.19351	0.026677	0.539773	96
0.425155	0.229386	1.19622	0	0.491471	97
0.432265	0.21861	1.19999	0	0.445685	98
0.43941	0.207911	1.20497	0	0.402462	99
0.446592	0.197308	1.21067	0	0.361833	100
0.453811	0.186812	1.21681	0	0.323779	101
0.461068	0.176428	1.22324	0	0.288252	102
0.46836	0.166162	1.22988	0	0.255194	103
0.475683	0.156015	1.23668	0	0.224538	104
0.483037	0.145989	1.24361	0	0.196212	105
0.490416	0.136086	1.25065	0	0.170146	106
0.497817	0.126308	1.25779	0	0.146267	107
0.505238	0.116657	1.26502	0	0.1245	108
0.512673	0.107133	1.27233	0	0.104772	109
0.520118	0.0977399	1.27973	0	0.0870094	110
0.527569	0.088478	1.28719	0	0.0711378	111
0.535021	0.0793498	1.29472	0	0.0570833	112
0.54247	0.0703572	1.30231	0	0.0447715	113
0.54991	0.0615023	1.30994	0	0.0341283	114
0.557335	0.0527875	1.31763	0	0.0250794	115
0.564741	0.0442151	1.32535	0	0.0175506	116
0.57212	0.0357876	1.33311	0	0.0114675	117
0.579468	0.0275077	1.34089	0	0.00675594	118
0.586778	0.019378	1.34868	0	0.00334175	119
0.594029	0.0114165	1.35652	0	0.0011539	120
0.594166	0.0112677	1.3634	0	0.0011239	121
0.595537	0.00979417	1.36831	0	0.000848732	122