VARIABLES = "X/R","Y/R","Z/R","R/R","Mach","Pres","Temp","Rho","Theta", "Gamma", "Massflow""J"
TITLE = "Streamline Data file"
text  x=5  y=93   t="Streamline Data"
zone t="MassFlow % = 0" I = 50 J = 1 K = 1
0.792128	0.0	0.0	0	1.5	122.151	1802.25	0.00370202	0	1.2961	0	0
0.60181	0.0	0.0	0	1.34681	151.801	1893.98	0.00437777	0	1.2961	0	6
0.649141	0.0	0.0	0	1.33393	154.506	1901.64	0.00443784	0	1.2961	0	12
0.703811	0.0	0.0	0	1.32536	156.326	1906.73	0.00447814	0	1.2961	0	18
0.760204	0.0	0.0	0	1.3895	143.063	1868.5	0.00418205	0	1.2961	0	24
0.808853	0.0	0.0	0	1.43187	134.754	1843.13	0.00399337	0	1.2961	0	30
0.860677	0.0	0.0	0	1.47472	126.719	1817.43	0.00380838	0	1.2961	0	36
0.908639	0.0	0.0	0	1.51339	119.783	1794.21	0.00364652	0	1.2961	0	42
0.953168	0.0	0.0	0	1.54889	113.68	1772.9	0.00350232	0	1.2961	0	48
1.00196	0.0	0.0	0	1.58728	107.361	1749.88	0.00335113	0	1.2961	0	54
1.04616	0.0	0.0	0	1.62186	101.914	1729.19	0.00321917	0	1.2961	0	60
1.09239	0.0	0.0	0	1.65775	96.5025	1707.77	0.00308648	0	1.2961	0	66
1.14363	0.0	0.0	0	1.69717	90.837	1684.33	0.00294571	0	1.2961	0	72
1.18852	0.0	0.0	0	1.73145	86.1417	1664.03	0.00282753	0	1.2961	0	78
1.23821	0.0	0.0	0	1.76918	81.2153	1641.8	0.00270193	0	1.2961	0	84
1.28607	0.0	0.0	0	1.80519	76.7445	1620.69	0.00258643	0	1.2961	0	90
1.33247	0.0	0.0	0	1.83976	72.6558	1600.55	0.00247946	0	1.2961	0	96
1.37948	0.0	0.0	0	1.87453	68.7404	1580.42	0.00237572	0	1.2961	0	102
1.42708	0.0	0.0	0	1.90941	65.0024	1560.36	0.00227541	0	1.2961	0	108
1.48175	0.0	0.0	0	1.94916	60.9679	1537.69	0.00216565	0	1.2961	0	114
1.53087	0.0	0.0	0	1.98442	57.5812	1517.74	0.00207223	0	1.2961	0	120
1.58588	0.0	0.0	0	2.0236	54.0217	1495.78	0.00197268	0	1.2961	0	126
1.6368	0.0	0.0	0	2.05938	50.9498	1475.9	0.00188556	0	1.2961	0	132
1.69263	0.0	0.0	0	2.09821	47.8005	1454.55	0.00179498	0	1.2961	0	138
1.74558	0.0	0.0	0	2.13463	45.0133	1434.72	0.00171368	0	1.2961	0	144
1.80274	0.0	0.0	0	2.17341	42.2152	1413.84	0.00163089	0	1.2961	0	150
1.858	0.0	0.0	0	2.21058	39.6895	1394.05	0.00155508	0	1.2961	0	156
1.91432	0.0	0.0	0	2.24788	37.3001	1374.41	0.00148234	0	1.2961	0	162
1.97493	0.0	0.0	0	2.2876	34.9079	1353.76	0.00140844	0	1.2961	0	168
2.03396	0.0	0.0	0	2.3257	32.7529	1334.19	0.00134087	0	1.2961	0	174
2.09427	0.0	0.0	0	2.36408	30.7133	1314.74	0.00127597	0	1.2961	0	180
2.15942	0.0	0.0	0	2.40508	28.6714	1294.24	0.00121001	0	1.2961	0	186
2.22293	0.0	0.0	0	2.44438	26.8393	1274.86	0.00114991	0	1.2961	0	192
2.29191	0.0	0.0	0	2.48641	25.0074	1254.44	0.00108887	0	1.2961	0	198
2.35897	0.0	0.0	0	2.52677	23.365	1235.12	0.00103327	0	1.2961	0	204
2.42774	0.0	0.0	0	2.56746	21.8178	1215.94	0.000980066	0	1.2961	0	210
2.5039	0.0	0.0	0	2.61178	20.2486	1195.38	0.00092522	0	1.2961	0	216
2.57685	0.0	0.0	0	2.65364	18.8703	1176.28	0.00087624	0	1.2961	0	222
2.65183	0.0	0.0	0	2.6959	17.5744	1157.32	0.000829437	0	1.2961	0	228
2.72894	0.0	0.0	0	2.73863	16.3552	1138.46	0.000784678	0	1.2961	0	234
2.81713	0.0	0.0	0	2.78674	15.0846	1117.62	0.000737215	0	1.2961	0	240
3.26151	0.0	0.0	0	2.7978	14.807	1112.89	0.000726725	0	1.2961	0	246
3.89728	0.0	0.0	0	2.7978	14.807	1112.89	0.000726725	0	1.2961	0	252
4.53304	0.0	0.0	0	2.7978	14.807	1112.89	0.000726725	0	1.2961	0	258
5.1688	0.0	0.0	0	2.7978	14.807	1112.89	0.000726725	0	1.2961	0	264
5.80457	0.0	0.0	0	2.7978	14.807	1112.89	0.000726725	0	1.2961	0	270
6.44033	0.0	0.0	0	2.7978	14.807	1112.89	0.000726725	0	1.2961	0	276
7.0761	0.0	0.0	0	2.7978	14.807	1112.89	0.000726725	0	1.2961	0	282
7.71186	0.0	0.0	0	2.7978	14.807	1112.89	0.000726725	0	1.2961	0	288
8.1357	0.0	0.0	0	2.7978	14.807	1112.89	0.000726725	0	1.2961	0	292
zone t="MassFlow % = 10" I = 53 J = 1 K = 37 
0.523897	0	0.328103	0.328103	1.33128	155.069	1903.21	0.0044503	2.51466	1.2961	1.14015	0
0.373677	0	0.319758	0.319758	1.18187	188.858	1990.89	0.00518136	0.350578	1.2961	1.14015	6
0.4124	0	0.320052	0.320052	1.20492	183.378	1977.54	0.00506497	0.701214	1.2961	1.14015	12
0.448972	0	0.320573	0.320573	1.22725	178.158	1964.54	0.00495336	1.06264	1.2961	1.14015	18
0.484203	0	0.32135	0.32135	1.2499	172.958	1951.29	0.00484144	1.41437	1.2961	1.14015	24
0.514617	0	0.322169	0.322169	1.26958	168.514	1939.72	0.00474518	1.73518	1.2961	1.14015	30
0.546977	0	0.323309	0.323309	1.29114	163.732	1927	0.00464094	2.07899	1.2961	1.14015	36
0.576958	0	0.324464	0.324464	1.31154	159.29	1914.93	0.00454349	2.39725	1.2961	1.14015	42
0.604729	0	0.325677	0.325677	1.33076	155.178	1903.52	0.00445273	2.69133	1.2961	1.14015	48
0.635037	0	0.327173	0.327173	1.35238	150.64	1890.66	0.00435193	3.00051	1.2961	1.14015	54
0.662357	0	0.328675	0.328675	1.37205	146.59	1878.93	0.00426138	3.27877	1.2961	1.14015	60
0.690781	0	0.330383	0.330383	1.39275	142.414	1866.56	0.00416741	3.56466	1.2961	1.14015	66
0.722079	0	0.332439	0.332439	1.41618	137.79	1852.54	0.00406261	3.86149	1.2961	1.14015	72
0.749354	0	0.334345	0.334345	1.43677	133.817	1840.2	0.00397193	4.11434	1.2961	1.14015	78
0.779309	0	0.336592	0.336592	1.45958	129.516	1826.52	0.00387307	4.38554	1.2961	1.14015	84
0.807973	0	0.338868	0.338868	1.48139	125.501	1813.42	0.00378011	4.64305	1.2961	1.14015	90
0.835562	0	0.341163	0.341163	1.5028	121.653	1800.57	0.00369037	4.87514	1.2961	1.14015	96
0.863317	0	0.343584	0.343584	1.5245	117.846	1787.54	0.00360093	5.09934	1.2961	1.14015	102
0.891192	0	0.346121	0.346121	1.54808	113.817	1773.39	0.00350557	5.2626	1.2961	1.14015	108
0.922992	0	0.349099	0.349099	1.57507	109.339	1757.2	0.00339867	5.43577	1.2961	1.14015	114
0.951355	0	0.351832	0.351832	1.59826	105.606	1743.31	0.0033088	5.61097	1.2961	1.14015	120
0.98281	0	0.35499	0.35499	1.62322	101.704	1728.38	0.00321407	5.82334	1.2961	1.14015	126
1.01166	0	0.357983	0.357983	1.64614	98.2258	1714.69	0.00312892	6.01077	1.2961	1.14015	132
1.04301	0	0.361333	0.361333	1.67099	94.567	1699.89	0.00303861	6.20884	1.2961	1.14015	138
1.07244	0	0.364582	0.364582	1.69485	91.1627	1685.71	0.00295386	6.37129	1.2961	1.14015	144
1.10395	0	0.368137	0.368137	1.72146	87.4882	1669.94	0.00286157	6.50014	1.2961	1.14015	150
1.1341	0	0.37161	0.37161	1.74609	84.2006	1655.39	0.00277824	6.64248	1.2961	1.14015	156
1.16455	0	0.375199	0.375199	1.77069	81.0234	1640.91	0.002697	6.78607	1.2961	1.14015	162
1.197	0	0.379104	0.379104	1.79653	77.7995	1625.76	0.00261382	6.94238	1.2961	1.14015	168
1.22827	0	0.382955	0.382955	1.82124	74.8216	1611.33	0.00253629	7.09069	1.2961	1.14015	174
1.2599	0	0.386927	0.386927	1.84606	71.9324	1596.89	0.00246039	7.23744	1.2961	1.14015	180
1.2937	0	0.391253	0.391253	1.87238	68.9781	1581.66	0.00238204	7.39167	1.2961	1.14015	186
1.32624	0	0.395533	0.395533	1.89753	66.2546	1567.18	0.00230915	7.53742	1.2961	1.14015	192
1.36121	0	0.40021	0.40021	1.92435	63.4585	1551.82	0.0022336	7.69042	1.2961	1.14015	198
1.39481	0	0.404785	0.404785	1.94995	60.89	1537.24	0.00216352	7.83354	1.2961	1.14015	204
1.42886	0	0.409516	0.409516	1.97571	58.4018	1522.66	0.00209498	7.97523	1.2961	1.14015	210
1.46612	0	0.414786	0.414786	2.00367	55.8059	1506.92	0.00202276	8.12591	1.2961	1.14015	216
1.50135	0	0.419862	0.419862	2.02992	53.4668	1492.25	0.00195703	8.26477	1.2961	1.14015	222
1.53713	0	0.425103	0.425103	2.05636	51.2024	1477.57	0.00189277	8.40194	1.2961	1.14015	228
1.57348	0	0.430513	0.430513	2.08302	49.0102	1462.87	0.00182993	8.53707	1.2961	1.14015	234
1.61448	0	0.436721	0.436721	2.11284	46.6623	1446.56	0.00176192	8.6854	1.2961	1.14015	240
1.89905	0	0.479823	0.479823	2.26571	36.2074	1365.11	0.00144872	8.29362	1.2961	1.14015	246
2.39347	0	0.543831	0.543831	2.45011	26.5819	1272.06	0.00114139	6.37595	1.2961	1.14015	252
2.9377	0	0.593836	0.593836	2.59386	20.8692	1203.65	0.000947023	4.15044	1.2961	1.14015	258
3.52032	0	0.625273	0.625273	2.70255	17.3789	1154.36	0.000822311	2.10112	1.2961	1.14015	264
4.13431	0	0.638683	0.638683	2.77609	15.3569	1122.2	0.00074746	0.515131	1.2961	1.14015	270
4.76809	0	0.639975	0.639975	2.7978	14.807	1112.89	0.000726725	0	1.2961	1.14015	276
5.40385	0	0.639975	0.639975	2.7978	14.807	1112.89	0.000726725	0	1.2961	1.14015	282
6.03962	0	0.639975	0.639975	2.7978	14.807	1112.89	0.000726725	0	1.2961	1.14015	288
6.67538	0	0.639975	0.639975	2.7978	14.807	1112.89	0.000726725	0	1.2961	1.14015	294
7.31115	0	0.639975	0.639975	2.7978	14.807	1112.89	0.000726725	0	1.2961	1.14015	300
7.94691	0	0.639975	0.639975	2.7978	14.807	1112.89	0.000726725	0	1.2961	1.14015	306
8.1357	0	0.639833	0.639833	2.7978	14.807	1112.89	0.000726725	0	1.2961	1.14015	343
0.523897	0.0569744	0.323118	0.328103	1.33128	155.069	1903.21	0.0044503	2.51466	1.2961	1.14015	0
0.373677	0.0555254	0.3149	0.319758	1.18187	188.858	1990.89	0.00518136	0.350578	1.2961	1.14015	6
0.4124	0.0555764	0.31519	0.320052	1.20492	183.378	1977.54	0.00506497	0.701214	1.2961	1.14015	12
0.448972	0.055667	0.315703	0.320573	1.22725	178.158	1964.54	0.00495336	1.06264	1.2961	1.14015	18
0.484203	0.0558019	0.316468	0.32135	1.2499	172.958	1951.29	0.00484144	1.41437	1.2961	1.14015	24
0.514617	0.055944	0.317274	0.322169	1.26958	168.514	1939.72	0.00474518	1.73518	1.2961	1.14015	30
0.546977	0.056142	0.318397	0.323309	1.29114	163.732	1927	0.00464094	2.07899	1.2961	1.14015	36
0.576958	0.0563426	0.319535	0.324464	1.31154	159.29	1914.93	0.00454349	2.39725	1.2961	1.14015	42
0.604729	0.0565533	0.320729	0.325677	1.33076	155.178	1903.52	0.00445273	2.69133	1.2961	1.14015	48
0.635037	0.056813	0.322203	0.327173	1.35238	150.64	1890.66	0.00435193	3.00051	1.2961	1.14015	54
0.662357	0.0570738	0.323682	0.328675	1.37205	146.59	1878.93	0.00426138	3.27877	1.2961	1.14015	60
0.690781	0.0573705	0.325364	0.330383	1.39275	142.414	1866.56	0.00416741	3.56466	1.2961	1.14015	66
0.722079	0.0577274	0.327388	0.332439	1.41618	137.79	1852.54	0.00406261	3.86149	1.2961	1.14015	72
0.749354	0.0580584	0.329265	0.334345	1.43677	133.817	1840.2	0.00397193	4.11434	1.2961	1.14015	78
0.779309	0.0584486	0.331479	0.336592	1.45958	129.516	1826.52	0.00387307	4.38554	1.2961	1.14015	84
0.807973	0.0588438	0.33372	0.338868	1.48139	125.501	1813.42	0.00378011	4.64305	1.2961	1.14015	90
0.835562	0.0592424	0.33598	0.341163	1.5028	121.653	1800.57	0.00369037	4.87514	1.2961	1.14015	96
0.863317	0.0596627	0.338364	0.343584	1.5245	117.846	1787.54	0.00360093	5.09934	1.2961	1.14015	102
0.891192	0.0601033	0.340863	0.346121	1.54808	113.817	1773.39	0.00350557	5.2626	1.2961	1.14015	108
0.922992	0.0606205	0.343796	0.349099	1.57507	109.339	1757.2	0.00339867	5.43577	1.2961	1.14015	114
0.951355	0.061095	0.346487	0.351832	1.59826	105.606	1743.31	0.0033088	5.61097	1.2961	1.14015	120
0.98281	0.0616434	0.349597	0.35499	1.62322	101.704	1728.38	0.00321407	5.82334	1.2961	1.14015	126
1.01166	0.0621631	0.352544	0.357983	1.64614	98.2258	1714.69	0.00312892	6.01077	1.2961	1.14015	132
1.04301	0.0627449	0.355844	0.361333	1.67099	94.567	1699.89	0.00303861	6.20884	1.2961	1.14015	138
1.07244	0.063309	0.359043	0.364582	1.69485	91.1627	1685.71	0.00295386	6.37129	1.2961	1.14015	144
1.10395	0.0639263	0.362544	0.368137	1.72146	87.4882	1669.94	0.00286157	6.50014	1.2961	1.14015	150
1.1341	0.0645295	0.365965	0.37161	1.74609	84.2006	1655.39	0.00277824	6.64248	1.2961	1.14015	156
1.16455	0.0651526	0.369499	0.375199	1.77069	81.0234	1640.91	0.002697	6.78607	1.2961	1.14015	162
1.197	0.0658307	0.373345	0.379104	1.79653	77.7995	1625.76	0.00261382	6.94238	1.2961	1.14015	168
1.22827	0.0664994	0.377137	0.382955	1.82124	74.8216	1611.33	0.00253629	7.09069	1.2961	1.14015	174
1.2599	0.0671891	0.381048	0.386927	1.84606	71.9324	1596.89	0.00246039	7.23744	1.2961	1.14015	180
1.2937	0.0679403	0.385309	0.391253	1.87238	68.9781	1581.66	0.00238204	7.39167	1.2961	1.14015	186
1.32624	0.0686835	0.389524	0.395533	1.89753	66.2546	1567.18	0.00230915	7.53742	1.2961	1.14015	192
1.36121	0.0694957	0.39413	0.40021	1.92435	63.4585	1551.82	0.0022336	7.69042	1.2961	1.14015	198
1.39481	0.0702902	0.398636	0.404785	1.94995	60.89	1537.24	0.00216352	7.83354	1.2961	1.14015	204
1.42886	0.0711116	0.403294	0.409516	1.97571	58.4018	1522.66	0.00209498	7.97523	1.2961	1.14015	210
1.46612	0.0720269	0.408485	0.414786	2.00367	55.8059	1506.92	0.00202276	8.12591	1.2961	1.14015	216
1.50135	0.0729083	0.413483	0.419862	2.02992	53.4668	1492.25	0.00195703	8.26477	1.2961	1.14015	222
1.53713	0.0738183	0.418645	0.425103	2.05636	51.2024	1477.57	0.00189277	8.40194	1.2961	1.14015	228
1.57348	0.0747577	0.423972	0.430513	2.08302	49.0102	1462.87	0.00182993	8.53707	1.2961	1.14015	234
1.61448	0.0758358	0.430086	0.436721	2.11284	46.6623	1446.56	0.00176192	8.6854	1.2961	1.14015	240
1.89905	0.0833204	0.472534	0.479823	2.26571	36.2074	1365.11	0.00144872	8.29362	1.2961	1.14015	246
2.39347	0.0944353	0.535569	0.543831	2.45011	26.5819	1272.06	0.00114139	6.37595	1.2961	1.14015	252
2.9377	0.103119	0.584814	0.593836	2.59386	20.8692	1203.65	0.000947023	4.15044	1.2961	1.14015	258
3.52032	0.108577	0.615774	0.625273	2.70255	17.3789	1154.36	0.000822311	2.10112	1.2961	1.14015	264
4.13431	0.110906	0.62898	0.638683	2.77609	15.3569	1122.2	0.00074746	0.515131	1.2961	1.14015	270
4.76809	0.111131	0.630253	0.639975	2.7978	14.807	1112.89	0.000726725	0	1.2961	1.14015	276
5.40385	0.111131	0.630253	0.639975	2.7978	14.807	1112.89	0.000726725	0	1.2961	1.14015	282
6.03962	0.111131	0.630253	0.639975	2.7978	14.807	1112.89	0.000726725	0	1.2961	1.14015	288
6.67538	0.111131	0.630253	0.639975	2.7978	14.807	1112.89	0.000726725	0	1.2961	1.14015	294
7.31115	0.111131	0.630253	0.639975	2.7978	14.807	1112.89	0.000726725	0	1.2961	1.14015	300
7.94691	0.111131	0.630253	0.639975	2.7978	14.807	1112.89	0.000726725	0	1.2961	1.14015	306
8.1357	0.111106	0.630112	0.639833	2.7978	14.807	1112.89	0.000726725	0	1.2961	1.14015	343
0.523897	0.112218	0.308316	0.328103	1.33128	155.069	1903.21	0.0044503	2.51466	1.2961	1.14015	0
0.373677	0.109364	0.300474	0.319758	1.18187	188.858	1990.89	0.00518136	0.350578	1.2961	1.14015	6
0.4124	0.109464	0.30075	0.320052	1.20492	183.378	1977.54	0.00506497	0.701214	1.2961	1.14015	12
0.448972	0.109643	0.30124	0.320573	1.22725	178.158	1964.54	0.00495336	1.06264	1.2961	1.14015	18
0.484203	0.109908	0.301971	0.32135	1.2499	172.958	1951.29	0.00484144	1.41437	1.2961	1.14015	24
0.514617	0.110188	0.30274	0.322169	1.26958	168.514	1939.72	0.00474518	1.73518	1.2961	1.14015	30
0.546977	0.110578	0.303811	0.323309	1.29114	163.732	1927	0.00464094	2.07899	1.2961	1.14015	36
0.576958	0.110973	0.304896	0.324464	1.31154	159.29	1914.93	0.00454349	2.39725	1.2961	1.14015	42
0.604729	0.111388	0.306036	0.325677	1.33076	155.178	1903.52	0.00445273	2.69133	1.2961	1.14015	48
0.635037	0.1119	0.307442	0.327173	1.35238	150.64	1890.66	0.00435193	3.00051	1.2961	1.14015	54
0.662357	0.112414	0.308854	0.328675	1.37205	146.59	1878.93	0.00426138	3.27877	1.2961	1.14015	60
0.690781	0.112998	0.310459	0.330383	1.39275	142.414	1866.56	0.00416741	3.56466	1.2961	1.14015	66
0.722079	0.113701	0.31239	0.332439	1.41618	137.79	1852.54	0.00406261	3.86149	1.2961	1.14015	72
0.749354	0.114353	0.314181	0.334345	1.43677	133.817	1840.2	0.00397193	4.11434	1.2961	1.14015	78
0.779309	0.115121	0.316293	0.336592	1.45958	129.516	1826.52	0.00387307	4.38554	1.2961	1.14015	84
0.807973	0.1159	0.318432	0.338868	1.48139	125.501	1813.42	0.00378011	4.64305	1.2961	1.14015	90
0.835562	0.116685	0.320589	0.341163	1.5028	121.653	1800.57	0.00369037	4.87514	1.2961	1.14015	96
0.863317	0.117513	0.322863	0.343584	1.5245	117.846	1787.54	0.00360093	5.09934	1.2961	1.14015	102
0.891192	0.11838	0.325247	0.346121	1.54808	113.817	1773.39	0.00350557	5.2626	1.2961	1.14015	108
0.922992	0.119399	0.328046	0.349099	1.57507	109.339	1757.2	0.00339867	5.43577	1.2961	1.14015	114
0.951355	0.120334	0.330614	0.351832	1.59826	105.606	1743.31	0.0033088	5.61097	1.2961	1.14015	120
0.98281	0.121414	0.333582	0.35499	1.62322	101.704	1728.38	0.00321407	5.82334	1.2961	1.14015	126
1.01166	0.122437	0.336394	0.357983	1.64614	98.2258	1714.69	0.00312892	6.01077	1.2961	1.14015	132
1.04301	0.123583	0.339542	0.361333	1.67099	94.567	1699.89	0.00303861	6.20884	1.2961	1.14015	138
1.07244	0.124694	0.342595	0.364582	1.69485	91.1627	1685.71	0.00295386	6.37129	1.2961	1.14015	144
1.10395	0.12591	0.345935	0.368137	1.72146	87.4882	1669.94	0.00286157	6.50014	1.2961	1.14015	150
1.1341	0.127098	0.3492	0.37161	1.74609	84.2006	1655.39	0.00277824	6.64248	1.2961	1.14015	156
1.16455	0.128326	0.352572	0.375199	1.77069	81.0234	1640.91	0.002697	6.78607	1.2961	1.14015	162
1.197	0.129661	0.356241	0.379104	1.79653	77.7995	1625.76	0.00261382	6.94238	1.2961	1.14015	168
1.22827	0.130978	0.35986	0.382955	1.82124	74.8216	1611.33	0.00253629	7.09069	1.2961	1.14015	174
1.2599	0.132337	0.363592	0.386927	1.84606	71.9324	1596.89	0.00246039	7.23744	1.2961	1.14015	180
1.2937	0.133816	0.367657	0.391253	1.87238	68.9781	1581.66	0.00238204	7.39167	1.2961	1.14015	186
1.32624	0.13528	0.371679	0.395533	1.89753	66.2546	1567.18	0.00230915	7.53742	1.2961	1.14015	192
1.36121	0.13688	0.376074	0.40021	1.92435	63.4585	1551.82	0.0022336	7.69042	1.2961	1.14015	198
1.39481	0.138445	0.380374	0.404785	1.94995	60.89	1537.24	0.00216352	7.83354	1.2961	1.14015	204
1.42886	0.140063	0.384819	0.409516	1.97571	58.4018	1522.66	0.00209498	7.97523	1.2961	1.14015	210
1.46612	0.141865	0.389772	0.414786	2.00367	55.8059	1506.92	0.00202276	8.12591	1.2961	1.14015	216
1.50135	0.143601	0.394541	0.419862	2.02992	53.4668	1492.25	0.00195703	8.26477	1.2961	1.14015	222
1.53713	0.145394	0.399466	0.425103	2.05636	51.2024	1477.57	0.00189277	8.40194	1.2961	1.14015	228
1.57348	0.147244	0.404549	0.430513	2.08302	49.0102	1462.87	0.00182993	8.53707	1.2961	1.14015	234
1.61448	0.149367	0.410384	0.436721	2.11284	46.6623	1446.56	0.00176192	8.6854	1.2961	1.14015	240
1.89905	0.164109	0.450886	0.479823	2.26571	36.2074	1365.11	0.00144872	8.29362	1.2961	1.14015	246
2.39347	0.186001	0.511034	0.543831	2.45011	26.5819	1272.06	0.00114139	6.37595	1.2961	1.14015	252
2.9377	0.203104	0.558023	0.593836	2.59386	20.8692	1203.65	0.000947023	4.15044	1.2961	1.14015	258
3.52032	0.213856	0.587564	0.625273	2.70255	17.3789	1154.36	0.000822311	2.10112	1.2961	1.14015	264
4.13431	0.218442	0.600165	0.638683	2.77609	15.3569	1122.2	0.00074746	0.515131	1.2961	1.14015	270
4.76809	0.218884	0.60138	0.639975	2.7978	14.807	1112.89	0.000726725	0	1.2961	1.14015	276
5.40385	0.218884	0.60138	0.639975	2.7978	14.807	1112.89	0.000726725	0	1.2961	1.14015	282
6.03962	0.218884	0.60138	0.639975	2.7978	14.807	1112.89	0.000726725	0	1.2961	1.14015	288
6.67538	0.218884	0.60138	0.639975	2.7978	14.807	1112.89	0.000726725	0	1.2961	1.14015	294
7.31115	0.218884	0.60138	0.639975	2.7978	14.807	1112.89	0.000726725	0	1.2961	1.14015	300
7.94691	0.218884	0.60138	0.639975	2.7978	14.807	1112.89	0.000726725	0	1.2961	1.14015	306
8.1357	0.218836	0.601246	0.639833	2.7978	14.807	1112.89	0.000726725	0	1.2961	1.14015	343
0.523897	0.164051	0.284145	0.328103	1.33128	155.069	1903.21	0.0044503	2.51466	1.2961	1.14015	0
0.373677	0.159879	0.276918	0.319758	1.18187	188.858	1990.89	0.00518136	0.350578	1.2961	1.14015	6
0.4124	0.160026	0.277173	0.320052	1.20492	183.378	1977.54	0.00506497	0.701214	1.2961	1.14015	12
0.448972	0.160287	0.277625	0.320573	1.22725	178.158	1964.54	0.00495336	1.06264	1.2961	1.14015	18
0.484203	0.160675	0.278298	0.32135	1.2499	172.958	1951.29	0.00484144	1.41437	1.2961	1.14015	24
0.514617	0.161084	0.279006	0.322169	1.26958	168.514	1939.72	0.00474518	1.73518	1.2961	1.14015	30
0.546977	0.161654	0.279994	0.323309	1.29114	163.732	1927	0.00464094	2.07899	1.2961	1.14015	36
0.576958	0.162232	0.280994	0.324464	1.31154	159.29	1914.93	0.00454349	2.39725	1.2961	1.14015	42
0.604729	0.162839	0.282045	0.325677	1.33076	155.178	1903.52	0.00445273	2.69133	1.2961	1.14015	48
0.635037	0.163587	0.28334	0.327173	1.35238	150.64	1890.66	0.00435193	3.00051	1.2961	1.14015	54
0.662357	0.164338	0.284641	0.328675	1.37205	146.59	1878.93	0.00426138	3.27877	1.2961	1.14015	60
0.690781	0.165192	0.28612	0.330383	1.39275	142.414	1866.56	0.00416741	3.56466	1.2961	1.14015	66
0.722079	0.166219	0.2879	0.332439	1.41618	137.79	1852.54	0.00406261	3.86149	1.2961	1.14015	72
0.749354	0.167172	0.289551	0.334345	1.43677	133.817	1840.2	0.00397193	4.11434	1.2961	1.14015	78
0.779309	0.168296	0.291497	0.336592	1.45958	129.516	1826.52	0.00387307	4.38554	1.2961	1.14015	84
0.807973	0.169434	0.293468	0.338868	1.48139	125.501	1813.42	0.00378011	4.64305	1.2961	1.14015	90
0.835562	0.170582	0.295456	0.341163	1.5028	121.653	1800.57	0.00369037	4.87514	1.2961	1.14015	96
0.863317	0.171792	0.297552	0.343584	1.5245	117.846	1787.54	0.00360093	5.09934	1.2961	1.14015	102
0.891192	0.173061	0.29975	0.346121	1.54808	113.817	1773.39	0.00350557	5.2626	1.2961	1.14015	108
0.922992	0.17455	0.302329	0.349099	1.57507	109.339	1757.2	0.00339867	5.43577	1.2961	1.14015	114
0.951355	0.175916	0.304696	0.351832	1.59826	105.606	1743.31	0.0033088	5.61097	1.2961	1.14015	120
0.98281	0.177495	0.307431	0.35499	1.62322	101.704	1728.38	0.00321407	5.82334	1.2961	1.14015	126
1.01166	0.178991	0.310022	0.357983	1.64614	98.2258	1714.69	0.00312892	6.01077	1.2961	1.14015	132
1.04301	0.180667	0.312924	0.361333	1.67099	94.567	1699.89	0.00303861	6.20884	1.2961	1.14015	138
1.07244	0.182291	0.315737	0.364582	1.69485	91.1627	1685.71	0.00295386	6.37129	1.2961	1.14015	144
1.10395	0.184068	0.318816	0.368137	1.72146	87.4882	1669.94	0.00286157	6.50014	1.2961	1.14015	150
1.1341	0.185805	0.321824	0.37161	1.74609	84.2006	1655.39	0.00277824	6.64248	1.2961	1.14015	156
1.16455	0.187599	0.324932	0.375199	1.77069	81.0234	1640.91	0.002697	6.78607	1.2961	1.14015	162
1.197	0.189552	0.328314	0.379104	1.79653	77.7995	1625.76	0.00261382	6.94238	1.2961	1.14015	168
1.22827	0.191477	0.331649	0.382955	1.82124	74.8216	1611.33	0.00253629	7.09069	1.2961	1.14015	174
1.2599	0.193463	0.335088	0.386927	1.84606	71.9324	1596.89	0.00246039	7.23744	1.2961	1.14015	180
1.2937	0.195626	0.338835	0.391253	1.87238	68.9781	1581.66	0.00238204	7.39167	1.2961	1.14015	186
1.32624	0.197766	0.342541	0.395533	1.89753	66.2546	1567.18	0.00230915	7.53742	1.2961	1.14015	192
1.36121	0.200105	0.346592	0.40021	1.92435	63.4585	1551.82	0.0022336	7.69042	1.2961	1.14015	198
1.39481	0.202393	0.350554	0.404785	1.94995	60.89	1537.24	0.00216352	7.83354	1.2961	1.14015	204
1.42886	0.204758	0.354651	0.409516	1.97571	58.4018	1522.66	0.00209498	7.97523	1.2961	1.14015	210
1.46612	0.207393	0.359215	0.414786	2.00367	55.8059	1506.92	0.00202276	8.12591	1.2961	1.14015	216
1.50135	0.209931	0.363611	0.419862	2.02992	53.4668	1492.25	0.00195703	8.26477	1.2961	1.14015	222
1.53713	0.212551	0.36815	0.425103	2.05636	51.2024	1477.57	0.00189277	8.40194	1.2961	1.14015	228
1.57348	0.215256	0.372835	0.430513	2.08302	49.0102	1462.87	0.00182993	8.53707	1.2961	1.14015	234
1.61448	0.218361	0.378212	0.436721	2.11284	46.6623	1446.56	0.00176192	8.6854	1.2961	1.14015	240
1.89905	0.239912	0.415539	0.479823	2.26571	36.2074	1365.11	0.00144872	8.29362	1.2961	1.14015	246
2.39347	0.271916	0.470972	0.543831	2.45011	26.5819	1272.06	0.00114139	6.37595	1.2961	1.14015	252
2.9377	0.296918	0.514277	0.593836	2.59386	20.8692	1203.65	0.000947023	4.15044	1.2961	1.14015	258
3.52032	0.312636	0.541502	0.625273	2.70255	17.3789	1154.36	0.000822311	2.10112	1.2961	1.14015	264
4.13431	0.319341	0.553115	0.638683	2.77609	15.3569	1122.2	0.00074746	0.515131	1.2961	1.14015	270
4.76809	0.319988	0.554235	0.639975	2.7978	14.807	1112.89	0.000726725	0	1.2961	1.14015	276
5.40385	0.319988	0.554235	0.639975	2.7978	14.807	1112.89	0.000726725	0	1.2961	1.14015	282
6.03962	0.319988	0.554235	0.639975	2.7978	14.807	1112.89	0.000726725	0	1.2961	1.14015	288
6.67538	0.319988	0.554235	0.639975	2.7978	14.807	1112.89	0.000726725	0	1.2961	1.14015	294
7.31115	0.319988	0.554235	0.639975	2.7978	14.807	1112.89	0.000726725	0	1.2961	1.14015	300
7.94691	0.319988	0.554235	0.639975	2.7978	14.807	1112.89	0.000726725	0	1.2961	1.14015	306
8.1357	0.319916	0.554111	0.639833	2.7978	14.807	1112.89	0.000726725	0	1.2961	1.14015	343
0.523897	0.2109	0.251341	0.328103	1.33128	155.069	1903.21	0.0044503	2.51466	1.2961	1.14015	0
0.373677	0.205536	0.244949	0.319758	1.18187	188.858	1990.89	0.00518136	0.350578	1.2961	1.14015	6
0.4124	0.205725	0.245174	0.320052	1.20492	183.378	1977.54	0.00506497	0.701214	1.2961	1.14015	12
0.448972	0.206061	0.245573	0.320573	1.22725	178.158	1964.54	0.00495336	1.06264	1.2961	1.14015	18
0.484203	0.20656	0.246169	0.32135	1.2499	172.958	1951.29	0.00484144	1.41437	1.2961	1.14015	24
0.514617	0.207086	0.246796	0.322169	1.26958	168.514	1939.72	0.00474518	1.73518	1.2961	1.14015	30
0.546977	0.207819	0.247669	0.323309	1.29114	163.732	1927	0.00464094	2.07899	1.2961	1.14015	36
0.576958	0.208561	0.248554	0.324464	1.31154	159.29	1914.93	0.00454349	2.39725	1.2961	1.14015	42
0.604729	0.209341	0.249483	0.325677	1.33076	155.178	1903.52	0.00445273	2.69133	1.2961	1.14015	48
0.635037	0.210303	0.250629	0.327173	1.35238	150.64	1890.66	0.00435193	3.00051	1.2961	1.14015	54
0.662357	0.211268	0.25178	0.328675	1.37205	146.59	1878.93	0.00426138	3.27877	1.2961	1.14015	60
0.690781	0.212366	0.253088	0.330383	1.39275	142.414	1866.56	0.00416741	3.56466	1.2961	1.14015	66
0.722079	0.213687	0.254663	0.332439	1.41618	137.79	1852.54	0.00406261	3.86149	1.2961	1.14015	72
0.749354	0.214913	0.256123	0.334345	1.43677	133.817	1840.2	0.00397193	4.11434	1.2961	1.14015	78
0.779309	0.216357	0.257845	0.336592	1.45958	129.516	1826.52	0.00387307	4.38554	1.2961	1.14015	84
0.807973	0.21782	0.259588	0.338868	1.48139	125.501	1813.42	0.00378011	4.64305	1.2961	1.14015	90
0.835562	0.219295	0.261346	0.341163	1.5028	121.653	1800.57	0.00369037	4.87514	1.2961	1.14015	96
0.863317	0.220851	0.2632	0.343584	1.5245	117.846	1787.54	0.00360093	5.09934	1.2961	1.14015	102
0.891192	0.222482	0.265144	0.346121	1.54808	113.817	1773.39	0.00350557	5.2626	1.2961	1.14015	108
0.922992	0.224397	0.267426	0.349099	1.57507	109.339	1757.2	0.00339867	5.43577	1.2961	1.14015	114
0.951355	0.226153	0.269519	0.351832	1.59826	105.606	1743.31	0.0033088	5.61097	1.2961	1.14015	120
0.98281	0.228183	0.271938	0.35499	1.62322	101.704	1728.38	0.00321407	5.82334	1.2961	1.14015	126
1.01166	0.230107	0.274231	0.357983	1.64614	98.2258	1714.69	0.00312892	6.01077	1.2961	1.14015	132
1.04301	0.232261	0.276797	0.361333	1.67099	94.567	1699.89	0.00303861	6.20884	1.2961	1.14015	138
1.07244	0.234349	0.279286	0.364582	1.69485	91.1627	1685.71	0.00295386	6.37129	1.2961	1.14015	144
1.10395	0.236634	0.282009	0.368137	1.72146	87.4882	1669.94	0.00286157	6.50014	1.2961	1.14015	150
1.1341	0.238867	0.28467	0.37161	1.74609	84.2006	1655.39	0.00277824	6.64248	1.2961	1.14015	156
1.16455	0.241173	0.287419	0.375199	1.77069	81.0234	1640.91	0.002697	6.78607	1.2961	1.14015	162
1.197	0.243683	0.290411	0.379104	1.79653	77.7995	1625.76	0.00261382	6.94238	1.2961	1.14015	168
1.22827	0.246159	0.29336	0.382955	1.82124	74.8216	1611.33	0.00253629	7.09069	1.2961	1.14015	174
1.2599	0.248712	0.296403	0.386927	1.84606	71.9324	1596.89	0.00246039	7.23744	1.2961	1.14015	180
1.2937	0.251493	0.299717	0.391253	1.87238	68.9781	1581.66	0.00238204	7.39167	1.2961	1.14015	186
1.32624	0.254244	0.302996	0.395533	1.89753	66.2546	1567.18	0.00230915	7.53742	1.2961	1.14015	192
1.36121	0.25725	0.306578	0.40021	1.92435	63.4585	1551.82	0.0022336	7.69042	1.2961	1.14015	198
1.39481	0.260191	0.310083	0.404785	1.94995	60.89	1537.24	0.00216352	7.83354	1.2961	1.14015	204
1.42886	0.263232	0.313707	0.409516	1.97571	58.4018	1522.66	0.00209498	7.97523	1.2961	1.14015	210
1.46612	0.266619	0.317745	0.414786	2.00367	55.8059	1506.92	0.00202276	8.12591	1.2961	1.14015	216
1.50135	0.269882	0.321633	0.419862	2.02992	53.4668	1492.25	0.00195703	8.26477	1.2961	1.14015	222
1.53713	0.273251	0.325648	0.425103	2.05636	51.2024	1477.57	0.00189277	8.40194	1.2961	1.14015	228
1.57348	0.276728	0.329792	0.430513	2.08302	49.0102	1462.87	0.00182993	8.53707	1.2961	1.14015	234
1.61448	0.280719	0.334548	0.436721	2.11284	46.6623	1446.56	0.00176192	8.6854	1.2961	1.14015	240
1.89905	0.308424	0.367566	0.479823	2.26571	36.2074	1365.11	0.00144872	8.29362	1.2961	1.14015	246
2.39347	0.349568	0.416599	0.543831	2.45011	26.5819	1272.06	0.00114139	6.37595	1.2961	1.14015	252
2.9377	0.381711	0.454905	0.593836	2.59386	20.8692	1203.65	0.000947023	4.15044	1.2961	1.14015	258
3.52032	0.401918	0.478987	0.625273	2.70255	17.3789	1154.36	0.000822311	2.10112	1.2961	1.14015	264
4.13431	0.410537	0.489259	0.638683	2.77609	15.3569	1122.2	0.00074746	0.515131	1.2961	1.14015	270
4.76809	0.411368	0.49025	0.639975	2.7978	14.807	1112.89	0.000726725	0	1.2961	1.14015	276
5.40385	0.411368	0.49025	0.639975	2.7978	14.807	1112.89	0.000726725	0	1.2961	1.14015	282
6.03962	0.411368	0.49025	0.639975	2.7978	14.807	1112.89	0.000726725	0	1.2961	1.14015	288
6.67538	0.411368	0.49025	0.639975	2.7978	14.807	1112.89	0.000726725	0	1.2961	1.14015	294
7.31115	0.411368	0.49025	0.639975	2.7978	14.807	1112.89	0.000726725	0	1.2961	1.14015	300
7.94691	0.411368	0.49025	0.639975	2.7978	14.807	1112.89	0.000726725	0	1.2961	1.14015	306
8.1357	0.411276	0.49014	0.639833	2.7978	14.807	1112.89	0.000726725	0	1.2961	1.14015	343
0.523897	0.251341	0.2109	0.328103	1.33128	155.069	1903.21	0.0044503	2.51466	1.2961	1.14015	0
0.373677	0.244949	0.205536	0.319758	1.18187	188.858	1990.89	0.00518136	0.350578	1.2961	1.14015	6
0.4124	0.245174	0.205725	0.320052	1.20492	183.378	1977.54	0.00506497	0.701214	1.2961	1.14015	12
0.448972	0.245573	0.206061	0.320573	1.22725	178.158	1964.54	0.00495336	1.06264	1.2961	1.14015	18
0.484203	0.246169	0.20656	0.32135	1.2499	172.958	1951.29	0.00484144	1.41437	1.2961	1.14015	24
0.514617	0.246796	0.207086	0.322169	1.26958	168.514	1939.72	0.00474518	1.73518	1.2961	1.14015	30
0.546977	0.247669	0.207819	0.323309	1.29114	163.732	1927	0.00464094	2.07899	1.2961	1.14015	36
0.576958	0.248554	0.208561	0.324464	1.31154	159.29	1914.93	0.00454349	2.39725	1.2961	1.14015	42
0.604729	0.249483	0.209341	0.325677	1.33076	155.178	1903.52	0.00445273	2.69133	1.2961	1.14015	48
0.635037	0.250629	0.210303	0.327173	1.35238	150.64	1890.66	0.00435193	3.00051	1.2961	1.14015	54
0.662357	0.25178	0.211268	0.328675	1.37205	146.59	1878.93	0.00426138	3.27877	1.2961	1.14015	60