VARIABLES = "X/R","R/R","Mach","Pres","Temp","Rho","Theta", "Gamma"
TITLE = "Primary MOC Contour Data file"
text  x=5  y=92  t="MOC Grid Development Contours"
zone t="Wall contour"
0	1	1.1318	201.069	2019.59	0.00543798	0	1.2961
0.000196211	1	1.13207	201.003	2019.44	0.00543659	0.011242	1.2961
0.000785026	1	1.13287	200.802	2018.98	0.00543241	0.0449787	1.2961
0.00176728	1	1.13423	200.466	2018.21	0.00542539	0.101258	1.2961
0.00314456	1	1.13615	199.991	2017.11	0.00541546	0.18017	1.2961
0.00401722	1.00001	1.13739	199.686	2016.41	0.0054091	0.23017	1.2961
0.00491929	1.00001	1.13866	199.371	2015.68	0.00540252	0.281856	1.2961
0.00579194	1.00002	1.13991	199.063	2014.97	0.00539606	0.331856	1.2961
0.00709482	1.00003	1.14178	198.602	2013.9	0.00538644	0.406507	1.2961
0.00796746	1.00003	1.14305	198.289	2013.18	0.00537988	0.456507	1.2961
0.00967555	1.00005	1.14554	197.677	2011.76	0.00536706	0.554377	1.2961
0.0105482	1.00006	1.14684	197.359	2011.01	0.00536039	0.604377	1.2961
0.0114208	1.00007	1.14813	197.041	2010.27	0.00535372	0.654377	1.2961
0.0126671	1.00008	1.14998	196.587	2009.22	0.00534422	0.72579	1.2961
0.0135397	1.00009	1.1513	196.264	2008.46	0.00533743	0.77579	1.2961
0.0144122	1.0001	1.15262	195.94	2007.7	0.00533065	0.82579	1.2961
0.0160763	1.00013	1.15514	195.326	2006.26	0.00531773	0.921144	1.2961
0.0169489	1.00014	1.15649	194.996	2005.49	0.00531082	0.971144	1.2961
0.0178214	1.00016	1.15783	194.668	2004.72	0.00530391	1.02114	1.2961
0.0186939	1.00017	1.15918	194.34	2003.95	0.00529701	1.07114	1.2961
0.0199116	1.0002	1.16106	193.883	2002.87	0.0052874	1.14093	1.2961
0.0207841	1.00022	1.16244	193.548	2002.08	0.00528035	1.19093	1.2961
0.0216565	1.00023	1.16381	193.214	2001.29	0.00527332	1.24093	1.2961
0.022529	1.00025	1.16519	192.88	2000.5	0.00526629	1.29093	1.2961
0.0241829	1.00029	1.16779	192.25	1999	0.005253	1.38571	1.2961
0.0250553	1.00031	1.16919	191.909	1998.19	0.00524583	1.43571	1.2961
0.0259277	1.00034	1.1706	191.57	1997.38	0.00523867	1.48571	1.2961
0.0268	1.00036	1.172	191.231	1996.58	0.00523152	1.53571	1.2961
0.0276724	1.00038	1.1734	190.893	1995.77	0.00522438	1.58571	1.2961
0.0289018	1.00042	1.17538	190.417	1994.63	0.00521434	1.65618	1.2961
0.0297741	1.00044	1.17681	190.072	1993.81	0.00520704	1.70618	1.2961
0.0306464	1.00047	1.17824	189.728	1992.98	0.00519976	1.75618	1.2961
0.0315186	1.0005	1.17968	189.384	1992.15	0.00519248	1.80618	1.2961
0.0323908	1.00052	1.18111	189.041	1991.33	0.00518522	1.85618	1.2961
0.0340817	1.00058	1.18387	188.377	1989.73	0.00517118	1.95312	1.2961
0.0349539	1.00061	1.18534	188.027	1988.88	0.00516377	2.00312	1.2961
0.035826	1.00064	1.1868	187.678	1988.04	0.00515636	2.05312	1.2961
0.0366981	1.00067	1.18826	187.33	1987.2	0.00514898	2.10312	1.2961
0.0375702	1.00071	1.18972	186.982	1986.35	0.0051416	2.15312	1.2961
0.0384422	1.00074	1.19117	186.635	1985.51	0.00513424	2.20312	1.2961
0.039738	1.00079	1.19333	186.12	1984.26	0.00512331	2.27742	1.2961
0.0406099	1.00082	1.19482	185.766	1983.4	0.00511579	2.32742	1.2961
0.0414818	1.00086	1.19631	185.413	1982.53	0.00510828	2.37742	1.2961
0.0423537	1.0009	1.1978	185.06	1981.67	0.00510079	2.42742	1.2961
0.0432256	1.00093	1.19928	184.709	1980.81	0.00509331	2.47742	1.2961
0.0440974	1.00097	1.20077	184.358	1979.95	0.00508583	2.52742	1.2961
0.0449692	1.00101	1.20225	184.007	1979.09	0.00507838	2.57742	1.2961
0.0458876	1.00105	1.20381	183.639	1978.18	0.00507053	2.63009	1.2961
0.0467593	1.00109	1.20533	183.281	1977.3	0.00506291	2.68009	1.2961
0.047631	1.00113	1.20684	182.925	1976.42	0.00505531	2.73009	1.2961
0.0485026	1.00118	1.20836	182.569	1975.54	0.00504772	2.78009	1.2961
0.0493743	1.00122	1.20987	182.213	1974.67	0.00504014	2.83009	1.2961
0.0502458	1.00126	1.21138	181.859	1973.79	0.00503257	2.88009	1.2961
0.0511174	1.00131	1.21289	181.505	1972.91	0.00502502	2.93009	1.2961
0.0525496	1.00138	1.21536	180.926	1971.47	0.00501263	3.01226	1.2961
0.053421	1.00143	1.2169	180.565	1970.57	0.00500493	3.06226	1.2961
0.0542924	1.00147	1.21844	180.206	1969.67	0.00499724	3.11226	1.2961
0.0551638	1.00152	1.21998	179.847	1968.78	0.00498957	3.16226	1.2961
0.0560351	1.00157	1.22152	179.489	1967.88	0.0049819	3.21226	1.2961
0.0569064	1.00162	1.22305	179.132	1966.99	0.00497425	3.26226	1.2961
0.0577776	1.00167	1.22459	178.776	1966.09	0.00496662	3.31226	1.2961
0.0586488	1.00172	1.22612	178.42	1965.2	0.00495899	3.36226	1.2961
0.0597449	1.00179	1.22805	177.974	1964.07	0.00494942	3.42517	1.2961
0.060616	1.00184	1.22961	177.612	1963.16	0.00494165	3.47517	1.2961
0.0614871	1.00189	1.23117	177.251	1962.25	0.00493389	3.52517	1.2961
0.0623581	1.00195	1.23274	176.89	1961.33	0.00492614	3.57517	1.2961
0.063229	1.002	1.2343	176.53	1960.42	0.00491841	3.62517	1.2961
0.0640999	1.00206	1.23585	176.171	1959.51	0.0049107	3.67517	1.2961
0.0649707	1.00211	1.23741	175.813	1958.6	0.00490299	3.72517	1.2961
0.0658415	1.00217	1.23897	175.456	1957.69	0.0048953	3.77517	1.2961
0.0674964	1.00228	1.24192	174.778	1955.96	0.00488071	3.8702	1.2961
0.068367	1.00234	1.24351	174.415	1955.03	0.00487289	3.9202	1.2961
0.0692376	1.0024	1.24509	174.053	1954.1	0.00486508	3.9702	1.2961
0.0701082	1.00246	1.24668	173.692	1953.18	0.00485728	4.0202	1.2961
0.0709787	1.00252	1.24826	173.331	1952.25	0.00484949	4.0702	1.2961
0.0718491	1.00258	1.24984	172.971	1951.32	0.00484172	4.1202	1.2961
0.0727195	1.00265	1.25142	172.612	1950.39	0.00483396	4.1702	1.2961
0.0735898	1.00271	1.253	172.253	1949.47	0.00482622	4.2202	1.2961
0.0744601	1.00278	1.25457	171.896	1948.54	0.00481848	4.2702	1.2961
0.0758285	1.00288	1.25705	171.335	1947.09	0.00480634	4.34883	1.2961
0.0766986	1.00295	1.25866	170.972	1946.15	0.00479849	4.39883	1.2961
0.0775687	1.00301	1.26026	170.609	1945.2	0.00479064	4.44883	1.2961
0.0784387	1.00308	1.26186	170.248	1944.26	0.0047828	4.49883	1.2961
0.0793086	1.00315	1.26347	169.887	1943.32	0.00477498	4.54883	1.2961
0.0801785	1.00322	1.26507	169.527	1942.38	0.00476717	4.59883	1.2961
0.0810484	1.00329	1.26667	169.168	1941.44	0.00475938	4.64883	1.2961
0.0819181	1.00336	1.26827	168.809	1940.49	0.0047516	4.69883	1.2961
0.0827878	1.00343	1.26986	168.452	1939.55	0.00474382	4.74883	1.2961
0.0836575	1.00351	1.27146	168.095	1938.61	0.00473606	4.79883	1.2961
0.0847676	1.0036	1.27349	167.64	1937.42	0.00472618	4.86266	1.2961
0.0856371	1.00367	1.27512	167.278	1936.46	0.0047183	4.91266	1.2961
0.0865065	1.00375	1.27674	166.916	1935.5	0.00471043	4.96266	1.2961
0.0873759	1.00382	1.27836	166.556	1934.55	0.00470258	5.01266	1.2961
0.0882451	1.0039	1.27998	166.196	1933.59	0.00469474	5.06266	1.2961
0.0891144	1.00398	1.2816	165.837	1932.63	0.00468691	5.11266	1.2961
0.0899835	1.00406	1.28322	165.478	1931.68	0.00467909	5.16266	1.2961
0.0908526	1.00414	1.28484	165.121	1930.73	0.00467129	5.21266	1.2961
0.0917216	1.00422	1.28646	164.764	1929.77	0.0046635	5.26266	1.2961
0.0925906	1.0043	1.28807	164.408	1928.82	0.00465572	5.31266	1.2961
0.0934595	1.00438	1.28968	164.052	1927.86	0.00464795	5.36266	1.2961
0.0943415	1.00446	1.29132	163.692	1926.9	0.00464008	5.41342	1.2961
0.0952103	1.00454	1.29296	163.332	1925.93	0.0046322	5.46342	1.2961
0.0960789	1.00463	1.2946	162.973	1924.96	0.00462433	5.51342	1.2961
0.0969475	1.00471	1.29624	162.614	1923.99	0.00461647	5.56342	1.2961
0.097816	1.0048	1.29788	162.256	1923.02	0.00460863	5.61342	1.2961
0.0986845	1.00488	1.29952	161.899	1922.05	0.0046008	5.66342	1.2961
0.0995528	1.00497	1.30115	161.542	1921.08	0.00459298	5.71342	1.2961
0.100421	1.00505	1.30279	161.186	1920.12	0.00458517	5.76342	1.2961
0.101289	1.00514	1.30442	160.831	1919.15	0.00457738	5.81342	1.2961
0.102157	1.00523	1.30605	160.477	1918.18	0.0045696	5.86342	1.2961
0.103026	1.00532	1.30768	160.123	1917.22	0.00456183	5.91342	1.2961
0.10458	1.00548	1.3106	159.492	1915.49	0.00454794	6.00296	1.2961
0.105448	1.00558	1.31226	159.134	1914.51	0.00454007	6.05296	1.2961
0.106315	1.00567	1.31391	158.778	1913.52	0.00453222	6.10296	1.2961
0.107183	1.00576	1.31557	158.422	1912.54	0.00452438	6.15296	1.2961
0.108051	1.00585	1.31722	158.067	1911.56	0.00451655	6.20296	1.2961
0.108918	1.00595	1.31887	157.712	1910.58	0.00450874	6.25296	1.2961
0.109786	1.00604	1.32052	157.359	1909.6	0.00450093	6.30296	1.2961
0.110653	1.00614	1.32217	157.006	1908.62	0.00449314	6.35296	1.2961
0.11152	1.00624	1.32382	156.653	1907.64	0.00448536	6.40296	1.2961
0.112387	1.00634	1.32547	156.302	1906.67	0.00447759	6.45296	1.2961
0.113255	1.00643	1.32712	155.951	1905.69	0.00446984	6.50296	1.2961
0.114122	1.00653	1.32877	155.601	1904.71	0.00446209	6.55296	1.2961
0.115513	1.00669	1.33141	155.04	1903.14	0.00444968	6.63324	1.2961
0.11638	1.0068	1.33308	154.686	1902.15	0.00444185	6.68324	1.2961
0.117247	1.0069	1.33475	154.334	1901.15	0.00443403	6.73324	1.2961
0.118113	1.007	1.33642	153.981	1900.16	0.00442622	6.78324	1.2961
0.11898	1.0071	1.33808	153.63	1899.17	0.00441843	6.83324	1.2961
0.119846	1.00721	1.33975	153.279	1898.18	0.00441064	6.88324	1.2961
0.120713	1.00731	1.34141	152.929	1897.19	0.00440287	6.93324	1.2961
0.121579	1.00742	1.34308	152.58	1896.2	0.00439511	6.98324	1.2961
0.122445	1.00752	1.34474	152.232	1895.21	0.00438736	7.03324	1.2961
0.123311	1.00763	1.34641	151.884	1894.22	0.00437963	7.08324	1.2961
0.124177	1.00774	1.34807	151.537	1893.23	0.0043719	7.13324	1.2961
0.125043	1.00785	1.34973	151.19	1892.24	0.00436419	7.18324	1.2961
0.125909	1.00796	1.35139	150.844	1891.25	0.00435648	7.23324	1.2961
0.127174	1.00812	1.35382	150.34	1889.8	0.00434524	7.30635	1.2961
0.12804	1.00823	1.3555	149.991	1888.8	0.00433746	7.35635	1.2961
0.128905	1.00834	1.35718	149.643	1887.8	0.00432969	7.40635	1.2961
0.129771	1.00846	1.35887	149.296	1886.79	0.00432194	7.45635	1.2961
0.130636	1.00857	1.36055	148.949	1885.79	0.00431419	7.50635	1.2961
0.131501	1.00868	1.36223	148.603	1884.79	0.00430646	7.55635	1.2961
0.132366	1.0088	1.3639	148.258	1883.79	0.00429873	7.60635	1.2961
0.133231	1.00892	1.36558	147.913	1882.79	0.00429102	7.65635	1.2961
0.134096	1.00903	1.36726	147.569	1881.79	0.00428332	7.70635	1.2961
0.134961	1.00915	1.36894	147.226	1880.79	0.00427564	7.75635	1.2961
0.135825	1.00927	1.37061	146.884	1879.79	0.00426796	7.80635	1.2961
0.13669	1.00939	1.37229	146.542	1878.79	0.00426029	7.85635	1.2961
0.137554	1.00951	1.37396	146.201	1877.79	0.00425264	7.90635	1.2961
0.138419	1.00963	1.37564	145.86	1876.79	0.00424499	7.95635	1.2961
0.139596	1.00979	1.37792	145.397	1875.42	0.00423459	8.0245	1.2961
0.140461	1.00991	1.37962	145.054	1874.41	0.00422688	8.0745	1.2961
0.141324	1.01004	1.38131	144.712	1873.4	0.00421918	8.1245	1.2961
0.142188	1.01016	1.383	144.37	1872.39	0.00421149	8.1745	1.2961
0.143052	1.01028	1.38469	144.029	1871.38	0.00420381	8.2245	1.2961
0.143916	1.01041	1.38639	143.688	1870.37	0.00419615	8.2745	1.2961
0.144779	1.01054	1.38808	143.349	1869.35	0.00418849	8.3245	1.2961
0.145643	1.01066	1.38977	143.01	1868.34	0.00418085	8.3745	1.2961
0.146506	1.01079	1.39146	142.671	1867.33	0.00417321	8.4245	1.2961
0.147369	1.01092	1.39315	142.334	1866.32	0.00416559	8.4745	1.2961
0.148232	1.01105	1.39484	141.997	1865.31	0.00415798	8.5245	1.2961
0.149095	1.01118	1.39653	141.66	1864.3	0.00415038	8.5745	1.2961
0.149958	1.01131	1.39822	141.325	1863.29	0.00414279	8.6245	1.2961
0.150821	1.01144	1.3999	140.99	1862.28	0.00413521	8.6745	1.2961
0.151683	1.01157	1.40159	140.655	1861.27	0.00412764	8.7245	1.2961
0.152814	1.01175	1.4038	140.218	1859.95	0.00411774	8.79004	1.2961
0.153676	1.01188	1.40551	139.882	1858.93	0.00411011	8.84004	1.2961
0.154539	1.01201	1.40721	139.546	1857.91	0.0041025	8.89004	1.2961
0.155401	1.01215	1.40892	139.211	1856.89	0.00409489	8.94004	1.2961
0.156263	1.01228	1.41062	138.876	1855.87	0.0040873	8.99004	1.2961
0.157125	1.01242	1.41233	138.542	1854.85	0.00407972	9.04004	1.2961
0.157986	1.01256	1.41403	138.209	1853.83	0.00407214	9.09004	1.2961
0.158848	1.0127	1.41573	137.877	1852.81	0.00406458	9.14004	1.2961
0.15971	1.01284	1.41743	137.545	1851.79	0.00405703	9.19004	1.2961
0.160571	1.01298	1.41914	137.213	1850.77	0.00404949	9.24004	1.2961
0.161432	1.01312	1.42084	136.883	1849.75	0.00404196	9.29004	1.2961
0.162293	1.01326	1.42254	136.553	1848.73	0.00403444	9.34004	1.2961
0.163154	1.0134	1.42424	136.224	1847.71	0.00402694	9.39004	1.2961
0.164015	1.01354	1.42594	135.895	1846.69	0.00401944	9.44004	1.2961
0.164876	1.01369	1.42764	135.567	1845.67	0.00401195	9.49004	1.2961
0.165737	1.01383	1.42934	135.24	1844.65	0.00400448	9.54004	1.2961
0.166863	1.01402	1.43157	134.812	1843.32	0.00399471	9.60548	1.2961
0.167723	1.01417	1.43328	134.483	1842.29	0.00398718	9.65548	1.2961
0.168584	1.01431	1.435	134.155	1841.26	0.00397967	9.70548	1.2961
0.169444	1.01446	1.43671	133.827	1840.23	0.00397217	9.75548	1.2961
0.170304	1.01461	1.43843	133.5	1839.2	0.00396467	9.80548	1.2961
0.171164	1.01476	1.44014	133.174	1838.17	0.00395719	9.85548	1.2961
0.172023	1.01491	1.44186	132.848	1837.15	0.00394972	9.90548	1.2961
0.172883	1.01506	1.44357	132.523	1836.12	0.00394226	9.95548	1.2961
0.173742	1.01521	1.44529	132.198	1835.09	0.00393481	10.0055	1.2961
0.174602	1.01536	1.447	131.874	1834.06	0.00392737	10.0555	1.2961
0.175461	1.01551	1.44872	131.551	1833.03	0.00391994	10.1055	1.2961
0.17632	1.01567	1.45043	131.228	1832	0.00391252	10.1555	1.2961
0.177179	1.01582	1.45214	130.906	1830.98	0.00390511	10.2055	1.2961
0.178038	1.01598	1.45386	130.585	1829.95	0.00389771	10.2555	1.2961
0.178896	1.01613	1.45557	130.264	1828.92	0.00389032	10.3055	1.2961
0.179755	1.01629	1.45728	129.944	1827.89	0.00388294	10.3555	1.2961
0.180613	1.01645	1.45899	129.625	1826.87	0.00387558	10.4055	1.2961
0.18178	1.01666	1.46132	129.191	1825.47	0.00386557	10.4735	1.2961
0.182638	1.01682	1.46305	128.87	1824.43	0.00385817	10.5235	1.2961
0.183496	1.01698	1.46478	128.55	1823.4	0.00385077	10.5735	1.2961
0.184354	1.01714	1.4665	128.231	1822.36	0.00384338	10.6235	1.2961
0.185212	1.0173	1.46823	127.912	1821.32	0.003836	10.6735	1.2961
0.186069	1.01746	1.46996	127.593	1820.29	0.00382864	10.7235	1.2961
0.186926	1.01763	1.47168	127.276	1819.25	0.00382128	10.7735	1.2961
0.187784	1.01779	1.47341	126.959	1818.21	0.00381394	10.8235	1.2961
0.188641	1.01795	1.47513	126.642	1817.18	0.0038066	10.8735	1.2961
0.189498	1.01812	1.47686	126.327	1816.14	0.00379928	10.9235	1.2961
0.190354	1.01828	1.47859	126.012	1815.11	0.00379196	10.9735	1.2961
0.191211	1.01845	1.48031	125.697	1814.07	0.00378466	11.0235	1.2961
0.192068	1.01862	1.48204	125.383	1813.03	0.00377736	11.0735	1.2961
0.192924	1.01879	1.48376	125.07	1812	0.00377008	11.1235	1.2961
0.19378	1.01896	1.48549	124.757	1810.96	0.00376281	11.1735	1.2961
0.194636	1.01912	1.48721	124.445	1809.93	0.00375554	11.2235	1.2961
0.195492	1.01929	1.48894	124.134	1808.89	0.00374829	11.2735	1.2961
0.196348	1.01947	1.49066	123.823	1807.85	0.00374105	11.3235	1.2961
0.197604	1.01972	1.4932	123.368	1806.33	0.00373043	11.3969	1.2961
0.198459	1.01989	1.49493	123.056	1805.29	0.00372316	11.4469	1.2961
0.199314	1.02006	1.49667	122.745	1804.25	0.00371589	11.4969	1.2961
0.200169	1.02024	1.49841	122.434	1803.2	0.00370864	11.5469	1.2961
0.201024	1.02041	1.50015	122.125	1802.16	0.00370139	11.5969	1.2961
0.201879	1.02059	1.50189	121.815	1801.12	0.00369416	11.6469	1.2961
0.202734	1.02077	1.50362	121.507	1800.07	0.00368694	11.6969	1.2961
0.203588	1.02094	1.50536	121.199	1799.03	0.00367972	11.7469	1.2961
0.204442	1.02112	1.5071	120.891	1797.99	0.00367252	11.7969	1.2961
0.205297	1.0213	1.50884	120.584	1796.94	0.00366533	11.8469	1.2961
0.206151	1.02148	1.51058	120.278	1795.9	0.00365814	11.8969	1.2961
0.207004	1.02166	1.51231	119.973	1794.86	0.00365097	11.9469	1.2961
0.207858	1.02184	1.51405	119.668	1793.81	0.00364381	11.9969	1.2961
0.208712	1.02202	1.51579	119.363	1792.77	0.00363665	12.0469	1.2961
0.209565	1.02221	1.51753	119.06	1791.72	0.00362951	12.0969	1.2961
0.210418	1.02239	1.51926	118.756	1790.68	0.00362238	12.1469	1.2961
0.211271	1.02257	1.521	118.454	1789.64	0.00361526	12.1969	1.2961
0.212124	1.02276	1.52274	118.152	1788.59	0.00360814	12.2469	1.2961
0.212977	1.02294	1.52448	117.85	1787.55	0.00360104	12.2969	1.2961
0.214373	1.02325	1.52732	117.358	1785.84	0.00358943	12.3787	1.2961
0.215225	1.02344	1.52907	117.056	1784.79	0.0035823	12.4287	1.2961
0.216077	1.02362	1.53082	116.755	1783.74	0.00357519	12.4787	1.2961
0.216929	1.02381	1.53257	116.454	1782.69	0.00356808	12.5287	1.2961
0.217781	1.024	1.53432	116.154	1781.64	0.00356099	12.5787	1.2961
0.218633	1.02419	1.53607	115.855	1780.59	0.0035539	12.6287	1.2961
0.219484	1.02438	1.53782	115.556	1779.54	0.00354682	12.6787	1.2961
0.219921	1.02448	1.53872	115.403	1779	0.00354319	12.7044	1.2961
0.235798	1.02812	1.55455	112.731	1769.51	0.00347974	13.0924	1.2961
0.260403	1.03393	1.57204	109.835	1759.02	0.00341056	13.4534	1.2961
0.290136	1.04113	1.59027	106.88	1748.09	0.00333956	13.7806	1.2961
0.323882	1.0495	1.60903	103.908	1736.86	0.00326766	14.0714	1.2961
0.360952	1.05889	1.62812	100.953	1725.45	0.00319573	14.3276	1.2961
0.400945	1.06919	1.64744	98.0319	1713.92	0.00312415	14.5499	1.2961
0.443523	1.08032	1.66691	95.1595	1702.32	0.00305329	14.7398	1.2961
0.488393	1.09219	1.68645	92.3496	1690.7	0.00298349	14.8993	1.2961
0.535325	1.10474	1.70598	89.6096	1679.11	0.00291496	15.0302	1.2961
0.584145	1.1179	1.7255	86.9414	1667.55	0.00284776	15.1334	1.2961
0.634674	1.13161	1.74495	84.3507	1656.06	0.00278206	15.2109	1.2961
0.686776	1.1458	1.76431	81.8381	1644.66	0.0027179	15.2639	1.2961
0.740346	1.16044	1.78358	79.4006	1633.34	0.00265523	15.2929	1.2961
0.795262	1.17546	1.80274	77.0409	1622.12	0.00259414	15.2998	1.2961
0.851451	1.19083	1.82181	74.7548	1611	0.00253454	15.2852	1.2961
0.908825	1.20649	1.84075	72.5425	1599.98	0.00247647	15.2504	1.2961
0.967322	1.22241	1.85957	70.4017	1589.07	0.00241989	15.1965	1.2961
1.02688	1.23855	1.87826	68.3311	1578.27	0.0023648	15.1247	1.2961
1.08745	1.25487	1.89683	66.3288	1567.58	0.00231115	15.0359	1.2961
1.14899	1.27135	1.91526	64.3943	1557.02	0.00225897	14.9317	1.2961
1.21146	1.28794	1.93331	62.549	1546.71	0.00220886	14.8205	1.2961
1.27478	1.30463	1.9503	60.8557	1537.04	0.00216258	14.7244	1.2961
1.33891	1.32143	1.96709	59.2234	1527.52	0.00211768	14.6176	1.2961
1.40381	1.33828	1.98383	57.6367	1518.08	0.00207377	14.4962	1.2961
1.46946	1.35518	2.00027	56.1163	1508.83	0.00203144	14.3686	1.2961
1.53584	1.3721	2.01658	54.6436	1499.69	0.00199018	14.23	1.2961
1.60293	1.38902	2.03276	53.2186	1490.67	0.00195002	14.0817	1.2961
1.67071	1.40592	2.04895	51.828	1481.68	0.00191058	13.92	1.2961
1.73918	1.42279	2.065	50.4817	1472.8	0.00187218	13.7497	1.2961
1.80832	1.43959	2.08094	49.1778	1464.02	0.00183476	13.5711	1.2961
1.87814	1.45632	2.097	47.8957	1455.21	0.00179774	13.3773	1.2961
1.94862	1.47296	2.1129	46.6571	1446.52	0.00176177	13.1777	1.2961
2.01977	1.48948	2.12864	45.4614	1437.97	0.00172683	12.973	1.2961
2.09158	1.50588	2.14443	44.2907	1429.42	0.00169241	12.757	1.2961
2.16405	1.52214	2.16035	43.1386	1420.84	0.00165835	12.5277	1.2961
2.23723	1.53822	2.17701	41.9641	1411.91	0.0016234	12.2678	1.2961
2.3111	1.55412	2.19294	40.8694	1403.41	0.00159063	12.0214	1.2961
2.38565	1.56983	2.20839	39.8342	1395.21	0.00155945	11.7818	1.2961
2.46085	1.58535	2.22368	38.8335	1387.12	0.00152914	11.5392	1.2961
2.53671	1.60067	2.23901	37.8553	1379.06	0.00149933	11.2888	1.2961
2.61325	1.61576	2.25471	36.8777	1370.84	0.00146937	11.0208	1.2961
2.69047	1.63062	2.26992	35.9537	1362.92	0.00144088	10.7607	1.2961
2.76837	1.64524	2.28487	35.0674	1355.17	0.0014134	10.5024	1.2961
2.84692	1.65962	2.29952	34.2194	1347.61	0.00138696	10.2471	1.2961
2.92612	1.67376	2.31397	33.4025	1340.19	0.00136134	9.99219	1.2961
3.00597	1.68764	2.3282	32.6165	1332.92	0.00133656	9.73841	1.2961
3.08647	1.70127	2.34222	31.8594	1325.79	0.00131256	9.48563	1.2961
3.1676	1.71465	2.35604	31.1301	1318.8	0.00128931	9.23399	1.2961
3.24936	1.72776	2.36966	30.4274	1311.93	0.0012668	8.98358	1.2961
3.33175	1.7406	2.38308	29.75	1305.2	0.00124498	8.73449	1.2961
3.41477	1.75317	2.3963	29.097	1298.6	0.00122385	8.48688	1.2961
3.4984	1.76546	2.40933	28.4673	1292.13	0.00120336	8.24083	1.2961
3.58266	1.77748	2.42217	27.8602	1285.78	0.00118351	7.9965	1.2961
3.66752	1.78922	2.43481	27.2747	1279.56	0.00116427	7.75398	1.2961
3.753	1.80068	2.44725	26.7099	1273.45	0.00114563	7.5134	1.2961
3.83907	1.81185	2.45951	26.1653	1267.48	0.00112757	7.27487	1.2961
3.92575	1.82273	2.47157	25.6397	1261.61	0.00111005	7.03838	1.2961
4.01302	1.83332	2.48344	25.1328	1255.87	0.00109308	6.8042	1.2961
4.10089	1.84363	2.49512	24.6437	1250.25	0.00107663	6.57227	1.2961
4.18934	1.85364	2.5066	24.172	1244.74	0.00106069	6.3428	1.2961
4.27837	1.86335	2.5179	23.7169	1239.34	0.00104525	6.11582	1.2961
4.36798	1.87278	2.529	23.2777	1234.06	0.00103029	5.89134	1.2961
4.45817	1.88191	2.53991	22.854	1228.89	0.00101579	5.66954	1.2961
4.54892	1.89074	2.55063	22.4452	1223.84	0.00100174	5.45042	1.2961
4.64023	1.89928	2.56115	22.0509	1218.89	0.000988134	5.23406	1.2961
4.7321	1.90752	2.57149	21.6705	1214.06	0.000974956	5.02057	1.2961
4.82451	1.91547	2.58162	21.3036	1209.33	0.000962196	4.81	1.2961
4.91748	1.92312	2.59157	20.9495	1204.71	0.000949834	4.60229	1.2961
5.01099	1.93048	2.60133	20.6082	1200.19	0.00093787	4.39767	1.2961
5.10504	1.93755	2.61089	20.279	1195.79	0.00092629	4.19612	1.2961
5.19961	1.94432	2.62026	19.9615	1191.49	0.000915083	3.99766	1.2961
5.2947	1.9508	2.62943	19.6555	1187.29	0.000904241	3.80243	1.2961
5.39031	1.95699	2.63841	19.3606	1183.19	0.000893756	3.61044	1.2961
5.48643	1.9629	2.64719	19.0764	1179.2	0.000883616	3.42173	1.2961
5.58305	1.96852	2.65577	18.8026	1175.32	0.000873815	3.23637	1.2961
5.68016	1.97385	2.66416	18.539	1171.53	0.000864347	3.05445	1.2961
5.77777	1.97891	2.67235	18.2852	1167.85	0.000855203	2.87599	1.2961
5.87585	1.98369	2.68034	18.0409	1164.26	0.000846373	2.70101	1.2961
5.97441	1.98819	2.68812	17.8059	1160.78	0.000837856	2.52968	1.2961
6.07343	1.99242	2.69571	17.5801	1157.4	0.000829645	2.36201	1.2961
6.17291	1.99638	2.70309	17.3631	1154.12	0.000821732	2.19807	1.2961
6.27283	2.00007	2.71026	17.1547	1150.94	0.000814111	2.03787	1.2961
6.3732	2.00351	2.71723	16.9547	1147.86	0.00080678	1.88158	1.2961
6.474	2.00668	2.72399	16.763	1144.89	0.000799735	1.72927	1.2961
6.57521	2.00961	2.73053	16.5795	1142.01	0.000792971	1.58101	1.2961
6.67684	2.01228	2.73686	16.4039	1139.24	0.000786484	1.4369	1.2961
6.77886	2.01472	2.74297	16.2362	1136.57	0.000780272	1.29704	1.2961
6.88128	2.01691	2.74886	16.0763	1134	0.000774334	1.1616	1.2961
6.98407	2.01888	2.75452	15.924	1131.53	0.000768668	1.03068	1.2961
7.08723	2.02062	2.75995	15.7793	1129.18	0.000763276	0.904477	1.2961
7.19075	2.02214	2.76514	15.6422	1126.93	0.000758153	0.783088	1.2961
7.29461	2.02346	2.77008	15.5128	1124.79	0.000753309	0.666895	1.2961
7.39879	2.02457	2.77477	15.3911	1122.77	0.000748746	0.55611	1.2961
7.50328	2.02549	2.77918	15.2773	1120.87	0.000744471	0.451069	1.2961
7.60807	2.02622	2.78332	15.1716	1119.09	0.000740494	0.352216	1.2961
7.71314	2.02678	2.78714	15.0745	1117.45	0.000736833	0.260196	1.2961
7.81846	2.02718	2.79062	14.9867	1115.96	0.000733519	0.17595	1.2961
7.92402	2.02743	2.7937	14.9093	1114.64	0.000730595	0.100802	1.2961
8.02978	2.02756	2.79628	14.8448	1113.54	0.000728156	0.0374982	1.2961
8.1357	2.02758	2.7978	14.807	1112.89	0.000726725	0	1.2961
zone t="RRC BD"
0.219921	1.02448	1.53872	115.403	1779	0.00354319	12.7044	1.2961
0.227155	1.02067	1.54015	115.16	1778.15	0.00353745	12.724	1.2961
0.238108	1.01492	1.54243	114.773	1776.78	0.00352826	12.7501	1.2961
0.249458	1.00898	1.54491	114.352	1775.29	0.00351829	12.7738	1.2961
0.2612	1.00286	1.54759	113.9	1773.68	0.00350755	12.7953	1.2961
0.273332	0.996573	1.55046	113.417	1771.96	0.00349606	12.8147	1.2961
0.285846	0.990116	1.55351	112.904	1770.13	0.00348386	12.8322	1.2961
0.298737	0.983497	1.55675	112.363	1768.18	0.00347096	12.8478	1.2961
0.311999	0.976722	1.56017	111.794	1766.14	0.0034574	12.8616	1.2961
0.325625	0.969797	1.56375	111.199	1763.98	0.00344319	12.8739	1.2961
0.339608	0.962728	1.56751	110.578	1761.73	0.00342836	12.8846	1.2961
0.353942	0.955522	1.57144	109.934	1759.38	0.00341292	12.8939	1.2961
0.36862	0.948184	1.57552	109.265	1756.93	0.0033969	12.9017	1.2961
0.383636	0.94072	1.57977	108.573	1754.38	0.00338029	12.908	1.2961
0.398985	0.933135	1.58419	107.859	1751.74	0.00336312	12.913	1.2961
0.41466	0.925436	1.58876	107.122	1749	0.00334538	12.9164	1.2961
0.430657	0.917626	1.5935	106.363	1746.16	0.00332708	12.9182	1.2961
0.446972	0.909711	1.59841	105.582	1743.22	0.00330821	12.9184	1.2961
0.463599	0.901695	1.60349	104.779	1740.18	0.00328877	12.9168	1.2961
0.480537	0.893583	1.60874	103.953	1737.04	0.00326876	12.9132	1.2961
0.497781	0.885377	1.61417	103.105	1733.79	0.00324817	12.9076	1.2961
0.51533	0.877083	1.61978	102.235	1730.43	0.00322699	12.8997	1.2961
0.53318	0.868703	1.62558	101.341	1726.97	0.00320521	12.8894	1.2961
0.551329	0.86024	1.63157	100.425	1723.39	0.00318283	12.8765	1.2961
0.569775	0.851698	1.63777	99.4852	1719.69	0.00315983	12.8608	1.2961
0.588516	0.84308	1.64416	98.5225	1715.88	0.00313621	12.8422	1.2961
0.60755	0.834389	1.65076	97.5366	1711.94	0.00311197	12.8204	1.2961
0.626873	0.825629	1.65758	96.5276	1707.88	0.0030871	12.7953	1.2961
0.646484	0.816802	1.66461	95.4959	1703.69	0.00306161	12.7668	1.2961
0.666379	0.807911	1.67186	94.4416	1699.37	0.0030355	12.7347	1.2961
0.686553	0.798961	1.67933	93.3653	1694.93	0.00300877	12.6988	1.2961
0.707002	0.789954	1.68702	92.2676	1690.36	0.00298144	12.6591	1.2961
0.727722	0.780894	1.69494	91.1491	1685.65	0.00295352	12.6154	1.2961
0.747978	0.772101	1.70218	90.1369	1681.36	0.00292818	12.5898	1.2961
0.767527	0.763677	1.70865	89.2407	1677.52	0.0029057	12.583	1.2961
0.787301	0.755217	1.71547	88.304	1673.48	0.00288213	12.5681	1.2961
0.806993	0.746852	1.72225	87.3809	1669.47	0.00285886	12.5549	1.2961
0.827115	0.738366	1.72951	86.4012	1665.18	0.0028341	12.5315	1.2961
0.847099	0.729999	1.73665	85.4483	1660.96	0.00280995	12.512	1.2961
0.867022	0.721717	1.74373	84.5104	1656.78	0.00278613	12.4944	1.2961
0.88725	0.713369	1.75118	83.5346	1652.39	0.00276127	12.4696	1.2961
0.907526	0.705061	1.75872	82.556	1647.95	0.00273628	12.4433	1.2961
0.927762	0.696828	1.76628	81.5852	1643.5	0.00271142	12.417	1.2961
0.94849	0.688456	1.77443	80.5501	1638.71	0.00268484	12.3782	1.2961
0.969064	0.680204	1.7825	79.5361	1633.98	0.00265873	12.3412	1.2961
0.989803	0.671945	1.79084	78.4997	1629.09	0.00263196	12.2982	1.2961
1.01043	0.663785	1.79919	77.4744	1624.2	0.00260539	12.2548	1.2961
1.03165	0.655451	1.80825	76.3737	1618.9	0.00257679	12.1954	1.2961
1.05265	0.647259	1.81724	75.2964	1613.66	0.0025487	12.1369	1.2961
1.07366	0.639112	1.82641	74.2109	1608.31	0.0025203	12.0735	1.2961
1.0944	0.631126	1.83549	73.1508	1603.03	0.00249248	12.011	1.2961
1.11541	0.623088	1.84502	72.0511	1597.5	0.00246352	11.9372	1.2961
1.13635	0.615119	1.85472	70.9475	1591.87	0.00243436	11.858	1.2961
1.15112	0.60953	1.86205	70.1242	1587.63	0.00241253	11.7869	1.2961
1.15282	0.608886	1.86327	69.9878	1586.93	0.00240891	11.7667	1.2961
1.15806	0.606909	1.86622	69.6586	1585.22	0.00240016	11.7299	1.2961
1.16644	0.60375	1.87047	69.188	1582.77	0.00238764	11.6865	1.2961
1.17148	0.601857	1.87325	68.8812	1581.16	0.00237947	11.653	1.2961
1.17709	0.599746	1.8763	68.5458	1579.4	0.00237053	11.6172	1.2961
1.18315	0.597472	1.87972	68.1723	1577.43	0.00236055	11.5747	1.2961
1.19259	0.593934	1.88445	67.6578	1574.7	0.00234679	11.5271	1.2961
1.19913	0.591486	1.88792	67.2835	1572.71	0.00233677	11.4882	1.2961
1.21255	0.586479	1.89435	66.5938	1569.01	0.00231827	11.4302	1.2961
1.21988	0.583751	1.89814	66.19	1566.83	0.00230742	11.3896	1.2961
1.22732	0.580987	1.90189	65.793	1564.68	0.00229673	11.3516	1.2961
1.23819	0.576954	1.90729	65.2249	1561.58	0.00228141	11.2986	1.2961
1.24598	0.574071	1.91129	64.8067	1559.29	0.00227012	11.2565	1.2961
1.25354	0.57128	1.91511	64.4097	1557.1	0.00225938	11.2175	1.2961
1.26803	0.565938	1.92246	63.6526	1552.9	0.00223887	11.1423	1.2961
1.27583	0.56307	1.92656	63.2331	1550.56	0.00222747	11.0971	1.2961
1.28384	0.560131	1.93085	62.7972	1548.11	0.00221562	11.0482	1.2961
1.29231	0.557025	1.93556	62.3224	1545.43	0.00220268	10.9912	1.2961
1.30619	0.551949	1.9438	61.4988	1540.74	0.00218019	10.8807	1.2961
1.3149	0.548767	1.94861	61.0226	1538	0.00216715	10.8226	1.2961
1.32391	0.545481	1.95372	60.5203	1535.1	0.00215338	10.7582	1.2961
1.33214	0.542483	1.95817	60.0854	1532.57	0.00214142	10.7059	1.2961
1.34815	0.536659	1.9671	59.2224	1527.52	0.00211766	10.5959	1.2961
1.35619	0.53374	1.97147	58.8045	1525.05	0.00210612	10.5443	1.2961
1.36445	0.530748	1.97606	58.3681	1522.45	0.00209405	10.4879	1.2961
1.37231	0.527901	1.98033	57.9652	1520.05	0.00208289	10.4374	1.2961
1.38034	0.525	1.98477	57.5481	1517.54	0.00207131	10.383	1.2961
1.39124	0.521061	1.99072	56.9946	1514.2	0.00205593	10.312	1.2961
1.3991	0.518225	1.99506	56.5936	1511.75	0.00204476	10.2591	1.2961
1.40677	0.515465	1.99925	56.2095	1509.4	0.00203404	10.209	1.2961
1.41446	0.512694	2.00349	55.8224	1507.02	0.00202322	10.1573	1.2961
1.42201	0.509982	2.00762	55.4484	1504.71	0.00201276	10.1076	1.2961
1.4366	0.504743	2.01566	54.726	1500.21	0.00199249	10.0096	1.2961
1.44407	0.502064	2.01976	54.3607	1497.92	0.00198222	9.95977	1.2961
1.45153	0.499391	2.02388	53.9964	1495.62	0.00197197	9.90939	1.2961
1.4589	0.496755	2.02793	53.6403	1493.36	0.00196193	9.86008	1.2961
1.46625	0.494127	2.03199	53.2857	1491.1	0.00195191	9.81033	1.2961
1.47352	0.491528	2.036	52.9376	1488.87	0.00194207	9.76134	1.2961
1.48428	0.487687	2.04195	52.4249	1485.56	0.00192754	9.6882	1.2961
1.49153	0.485103	2.04596	52.0823	1483.34	0.00191781	9.63896	1.2961
1.49873	0.482534	2.04995	51.7431	1481.12	0.00190817	9.5898	1.2961
1.50589	0.479984	2.05391	51.4083	1478.93	0.00189864	9.54093	1.2961
1.51302	0.477449	2.05786	51.0766	1476.74	0.00188918	9.49213	1.2961
1.5201	0.474931	2.06178	50.7489	1474.57	0.00187982	9.44357	1.2961
1.52715	0.472426	2.0657	50.4242	1472.41	0.00187053	9.39507	1.2961