VARIABLES = "X/R","R/R","Mach","Pres","Temp","Rho","Theta", "Gamma"
TITLE = "Primary MOC Contour Data file"
text  x=5  y=92  t="MOC Grid Development Contours"
zone t="Wall contour"
0	1	1.1318	201.069	2795.37	0.00392857	0	1.2961
8.7225e-05	1	1.13227	200.951	2794.99	0.00392679	0.0130828	1.2961
0.00034926	1	1.13371	200.596	2793.86	0.00392144	0.0523852	1.2961
0.000787231	1	1.13609	200.006	2791.98	0.00391253	0.118076	1.2961
0.00140301	1	1.13943	199.182	2789.35	0.00390009	0.210436	1.2961
0.00219916	1.00001	1.14371	198.126	2785.97	0.00388413	0.329851	1.2961
0.00317888	1.00001	1.14894	196.841	2781.83	0.00386468	0.476803	1.2961
0.00434597	1.00002	1.15512	195.329	2776.93	0.00384176	0.651862	1.2961
0.00570471	1.00004	1.16225	193.594	2771.28	0.0038154	0.855675	1.2961
0.00725983	1.00007	1.17032	191.638	2764.86	0.00378562	1.08896	1.2961
0.00809306	1.00009	1.17461	190.602	2761.43	0.00376981	1.21396	1.2961
0.00901653	1.00011	1.17934	189.464	2757.66	0.00375245	1.35251	1.2961
0.00984967	1.00013	1.18359	188.445	2754.26	0.00373686	1.47751	1.2961
0.0109802	1.00016	1.18932	187.076	2749.68	0.00371591	1.64714	1.2961
0.0118133	1.00018	1.19353	186.075	2746.31	0.00370055	1.77214	1.2961
0.0131567	1.00023	1.20026	184.477	2740.91	0.00367601	1.97376	1.2961
0.0139896	1.00026	1.20443	183.494	2737.56	0.00366088	2.09876	1.2961
0.0155522	1.00032	1.21219	181.67	2731.32	0.00363277	2.3333	1.2961
0.0163848	1.00035	1.21631	180.704	2728	0.00361787	2.4583	1.2961
0.0172174	1.00039	1.22041	179.747	2724.69	0.00360307	2.5833	1.2961
0.0181729	1.00043	1.2251	178.656	2720.9	0.00358619	2.72676	1.2961
0.0190053	1.00047	1.22919	177.71	2717.6	0.00357153	2.85176	1.2961
0.0198376	1.00052	1.23325	176.77	2714.31	0.00355695	2.97676	1.2961
0.0210256	1.00058	1.23903	175.441	2709.64	0.00353629	3.1552	1.2961
0.0218577	1.00063	1.24308	174.513	2706.36	0.00352185	3.2802	1.2961
0.0226896	1.00067	1.24711	173.592	2703.09	0.0035075	3.4052	1.2961
0.0241172	1.00076	1.254	172.025	2697.49	0.00348305	3.61972	1.2961
0.0249488	1.00082	1.25801	171.117	2694.23	0.00346885	3.74472	1.2961
0.0257804	1.00087	1.26201	170.214	2690.98	0.00345472	3.86972	1.2961
0.0266118	1.00093	1.266	169.317	2687.73	0.00344067	3.99472	1.2961
0.027455	1.00099	1.27003	168.413	2684.45	0.00342648	4.12149	1.2961
0.0282861	1.00105	1.27402	167.523	2681.2	0.00341251	4.24649	1.2961
0.0291172	1.00111	1.27799	166.639	2677.96	0.00339861	4.37149	1.2961
0.0299481	1.00118	1.28195	165.761	2674.73	0.00338477	4.49649	1.2961
0.0310466	1.00126	1.28717	164.607	2670.46	0.00336658	4.66178	1.2961
0.0318771	1.00133	1.29112	163.736	2667.23	0.00335284	4.78678	1.2961
0.0327075	1.0014	1.29507	162.871	2664	0.00333916	4.91178	1.2961
0.0335378	1.00148	1.299	162.011	2660.78	0.00332554	5.03678	1.2961
0.0348999	1.0016	1.30544	160.61	2655.51	0.00330333	5.24191	1.2961
0.0357298	1.00167	1.30937	159.758	2652.29	0.00328981	5.36691	1.2961
0.0365594	1.00175	1.31329	158.912	2649.07	0.00327636	5.49191	1.2961
0.0373889	1.00183	1.3172	158.07	2645.86	0.00326296	5.61691	1.2961
0.0390235	1.002	1.32489	156.425	2639.54	0.00323672	5.86333	1.2961
0.0398525	1.00208	1.3288	155.593	2636.33	0.00322343	5.98833	1.2961
0.0406812	1.00217	1.3327	154.766	2633.12	0.0032102	6.11333	1.2961
0.0415098	1.00226	1.3366	153.943	2629.91	0.00319703	6.23833	1.2961
0.0423381	1.00235	1.34049	153.125	2626.71	0.00318391	6.36333	1.2961
0.0434262	1.00248	1.34558	152.056	2622.51	0.00316675	6.52756	1.2961
0.0442541	1.00257	1.34947	151.244	2619.31	0.00315369	6.65256	1.2961
0.0450818	1.00267	1.35336	150.436	2616.1	0.00314068	6.77756	1.2961
0.0459092	1.00277	1.35724	149.632	2612.9	0.00312773	6.90256	1.2961
0.0467365	1.00287	1.36111	148.833	2609.71	0.00311483	7.02756	1.2961
0.0481173	1.00304	1.36757	147.507	2604.38	0.00309339	7.23629	1.2961
0.048944	1.00315	1.37144	146.714	2601.18	0.00308057	7.36129	1.2961
0.0497704	1.00326	1.37531	145.926	2597.98	0.00306779	7.48629	1.2961
0.0505966	1.00337	1.37918	145.142	2594.78	0.00305506	7.61129	1.2961
0.0514225	1.00348	1.38304	144.362	2591.59	0.00304238	7.73629	1.2961
0.0522482	1.00359	1.3869	143.585	2588.39	0.00302975	7.86129	1.2961
0.0531069	1.00371	1.39091	142.781	2585.08	0.00301666	7.99134	1.2961
0.0539321	1.00383	1.39477	142.009	2581.88	0.00300406	8.11634	1.2961
0.054757	1.00394	1.39864	141.241	2578.68	0.00299152	8.24134	1.2961
0.0555817	1.00407	1.40249	140.477	2575.48	0.00297902	8.36634	1.2961
0.0564061	1.00419	1.40635	139.716	2572.29	0.00296656	8.49134	1.2961
0.0572302	1.00431	1.4102	138.959	2569.1	0.00295415	8.61634	1.2961
0.0584056	1.00449	1.41569	137.885	2564.55	0.00293652	8.79469	1.2961
0.059229	1.00462	1.41955	137.134	2561.35	0.00292417	8.91969	1.2961
0.0600522	1.00475	1.4234	136.386	2558.15	0.00291186	9.04469	1.2961
0.0608751	1.00488	1.42726	135.641	2554.96	0.00289959	9.16969	1.2961
0.0616977	1.00502	1.43111	134.901	2551.76	0.00288737	9.29469	1.2961
0.06252	1.00515	1.43495	134.164	2548.57	0.00287518	9.41969	1.2961
0.0640246	1.0054	1.44199	132.823	2542.73	0.00285299	9.64853	1.2961
0.0648461	1.00554	1.44585	132.093	2539.53	0.00284088	9.77353	1.2961
0.0656672	1.00569	1.4497	131.366	2536.33	0.00282881	9.89853	1.2961
0.0664881	1.00583	1.45355	130.642	2533.13	0.00281678	10.0235	1.2961
0.0673086	1.00598	1.4574	129.922	2529.94	0.00280479	10.1485	1.2961
0.0681288	1.00612	1.46125	129.205	2526.74	0.00279285	10.2735	1.2961
0.0689487	1.00627	1.46509	128.492	2523.55	0.00278094	10.3985	1.2961
0.0699763	1.00646	1.46991	127.602	2519.54	0.00276607	10.5553	1.2961
0.0707954	1.00662	1.47377	126.893	2516.34	0.0027542	10.6803	1.2961
0.0716142	1.00677	1.47762	126.187	2513.13	0.00274238	10.8053	1.2961
0.0724326	1.00693	1.48148	125.485	2509.93	0.00273059	10.9303	1.2961
0.0732507	1.00709	1.48533	124.786	2506.73	0.00271885	11.0553	1.2961
0.0740685	1.00725	1.48918	124.09	2503.53	0.00270714	11.1803	1.2961
0.0748859	1.00741	1.49303	123.397	2500.33	0.00269548	11.3053	1.2961
0.0762735	1.00769	1.49957	122.228	2494.9	0.00267575	11.5176	1.2961
0.0770899	1.00786	1.50343	121.541	2491.69	0.00266414	11.6426	1.2961
0.077906	1.00803	1.50729	120.857	2488.48	0.00265257	11.7676	1.2961
0.0781396	1.00808	1.5084	120.662	2487.56	0.00264927	11.8034	1.2961
0.0902578	1.01066	1.5227	118.159	2475.68	0.00260676	12.2733	1.2961
0.111138	1.0153	1.53786	115.55	2463.08	0.00256223	12.745	1.2961
0.137286	1.02132	1.5537	112.873	2449.92	0.00251632	13.1861	1.2961
0.167568	1.02853	1.57026	110.126	2436.17	0.00246893	13.585	1.2961
0.201318	1.0368	1.58752	107.322	2421.86	0.00242029	13.9379	1.2961
0.238071	1.04604	1.60538	104.481	2407.06	0.0023707	14.2449	1.2961
0.277476	1.05614	1.62372	101.627	2391.88	0.00232058	14.508	1.2961
0.319249	1.06704	1.64242	98.784	2376.43	0.00227034	14.7304	1.2961
0.363159	1.07866	1.66135	95.9732	2360.81	0.00222033	14.9158	1.2961
0.409008	1.09094	1.6804	93.2116	2345.11	0.00217087	15.0676	1.2961
0.456625	1.10382	1.6995	90.5117	2329.42	0.0021222	15.189	1.2961
0.505865	1.11724	1.71856	87.8818	2313.78	0.00207446	15.2824	1.2961
0.556599	1.13113	1.73756	85.3267	2298.23	0.00202777	15.3501	1.2961
0.608715	1.14546	1.75646	82.8485	2282.81	0.00198218	15.3939	1.2961
0.662121	1.16018	1.77525	80.4465	2267.52	0.00193769	15.4149	1.2961
0.716724	1.17524	1.79391	78.1212	2252.38	0.00189433	15.4147	1.2961
0.772459	1.1906	1.81245	75.8689	2237.37	0.00185205	15.394	1.2961
0.829252	1.20621	1.83086	73.6894	2222.52	0.00181087	15.3542	1.2961
0.887057	1.22206	1.84916	71.5785	2207.81	0.00177071	15.2957	1.2961
0.945818	1.23809	1.86733	69.5355	2193.26	0.00173159	15.22	1.2961
1.00549	1.25427	1.88537	67.5584	2178.85	0.00169348	15.128	1.2961
1.06605	1.27059	1.9033	65.6442	2164.59	0.00165634	15.0204	1.2961
1.12745	1.28699	1.9211	63.7918	2150.48	0.00162016	14.8983	1.2961
1.18968	1.30347	1.93878	61.9996	2136.53	0.00158492	14.7628	1.2961
1.25269	1.31999	1.95619	60.2788	2122.83	0.00155088	14.6189	1.2961
1.31645	1.33654	1.97265	58.692	2109.93	0.00151928	14.4892	1.2961
1.38092	1.35312	1.98901	57.1534	2097.17	0.00148846	14.3479	1.2961
1.44608	1.36969	2.00536	55.6527	2084.46	0.00145821	14.1927	1.2961
1.51192	1.38625	2.0215	54.2069	2071.96	0.0014289	14.0306	1.2961
1.57843	1.40276	2.03773	52.788	2059.44	0.00139995	13.8529	1.2961
1.6456	1.41922	2.05369	51.4269	2047.19	0.00137202	13.6717	1.2961
1.71343	1.43559	2.06969	50.0948	2034.95	0.00134452	13.4776	1.2961
1.7819	1.45188	2.08542	48.8171	2022.98	0.00131798	13.2812	1.2961
1.85102	1.46806	2.10125	47.5615	2010.97	0.00129175	13.0711	1.2961
1.92077	1.48412	2.11668	46.3674	1999.32	0.00126665	12.8637	1.2961
1.99115	1.50005	2.13227	45.1891	1987.6	0.00124175	12.6421	1.2961
2.06217	1.51584	2.14758	44.06	1976.14	0.00121774	12.4203	1.2961
2.1338	1.53147	2.16279	42.9649	1964.81	0.00119432	12.1933	1.2961
2.20606	1.54693	2.17805	41.8916	1953.49	0.00117123	11.9566	1.2961
2.27895	1.5622	2.19303	40.8634	1942.43	0.00114899	11.7211	1.2961
2.35249	1.57728	2.20871	39.8127	1930.91	0.00112613	11.4576	1.2961
2.42666	1.59215	2.22318	38.866	1920.32	0.00110541	11.2231	1.2961
2.50142	1.60683	2.23737	37.9586	1909.98	0.00108545	10.9906	1.2961
2.57677	1.6213	2.25146	37.078	1899.77	0.00106597	10.755	1.2961
2.65272	1.63556	2.26567	36.2098	1889.51	0.00104666	10.5101	1.2961
2.7293	1.6496	2.28004	35.3514	1879.19	0.00102746	10.2551	1.2961
2.80651	1.66337	2.29487	34.4861	1868.58	0.001008	9.98115	1.2961
2.88439	1.67688	2.31015	33.6163	1857.7	0.000988329	9.68933	1.2961
2.96295	1.6901	2.32429	32.8303	1847.69	0.000970451	9.42573	1.2961
3.04214	1.70306	2.3386	32.0534	1837.61	0.000952684	9.15293	1.2961
3.12196	1.71573	2.35226	31.328	1828.02	0.000936007	8.89404	1.2961
3.20243	1.72813	2.36596	30.6168	1818.46	0.000919569	8.63018	1.2961
3.2835	1.74025	2.37921	29.9437	1809.25	0.000903931	8.37469	1.2961
3.36522	1.7521	2.39234	29.291	1800.16	0.000888691	8.11924	1.2961
3.44755	1.76366	2.40519	28.6659	1791.31	0.000874023	7.86809	1.2961
3.53047	1.77493	2.41804	28.0541	1782.5	0.000859594	7.6134	1.2961
3.61398	1.78591	2.43052	27.4717	1773.98	0.000845793	7.36541	1.2961
3.69811	1.7966	2.44281	26.9101	1765.63	0.000832422	7.11973	1.2961
3.78285	1.807	2.45495	26.3665	1757.42	0.000819417	6.8753	1.2961
3.86812	1.8171	2.4668	25.8463	1749.44	0.000806916	6.63562	1.2961
3.95404	1.82691	2.47854	25.3407	1741.56	0.00079471	6.39627	1.2961
4.04052	1.83643	2.49004	24.8553	1733.88	0.000782938	6.16081	1.2961
4.12757	1.84564	2.50133	24.3876	1726.37	0.000771549	5.92847	1.2961
4.21519	1.85456	2.51243	23.9362	1719.02	0.000760506	5.6986	1.2961
4.30338	1.86319	2.52333	23.501	1711.83	0.000749814	5.47167	1.2961
4.39211	1.87151	2.53401	23.082	1704.81	0.00073948	5.24814	1.2961
4.48143	1.87954	2.54452	22.6774	1697.93	0.000729458	5.02734	1.2961
4.57126	1.88727	2.5548	22.2879	1691.23	0.000719772	4.80991	1.2961
4.66163	1.89471	2.56488	21.9127	1684.68	0.000710406	4.59584	1.2961
4.75259	1.90185	2.57479	21.5502	1678.27	0.000701321	4.38458	1.2961
4.84404	1.90869	2.58447	21.2017	1672.03	0.000692554	4.17701	1.2961
4.93598	1.91524	2.59393	20.8664	1665.95	0.00068409	3.97314	1.2961
5.02851	1.92151	2.60324	20.542	1660	0.00067587	3.77193	1.2961
5.12152	1.92748	2.61232	20.2303	1654.21	0.000667943	3.57456	1.2961
5.21504	1.93316	2.62119	19.9302	1648.57	0.000660285	3.38078	1.2961
5.30905	1.93856	2.62986	19.6414	1643.09	0.00065289	3.19063	1.2961
5.40354	1.94367	2.63831	19.3637	1637.75	0.000645756	3.00422	1.2961
5.49852	1.9485	2.64657	19.0964	1632.56	0.000638867	2.82146	1.2961
5.59395	1.95305	2.6546	18.8399	1627.52	0.000632238	2.64281	1.2961
5.6899	1.95733	2.66245	18.5925	1622.61	0.000625822	2.4674	1.2961
5.78627	1.96134	2.67007	18.3555	1617.86	0.000619657	2.29626	1.2961
5.88311	1.96508	2.67749	18.1277	1613.26	0.000613716	2.12894	1.2961
5.98036	1.96856	2.68467	17.9097	1608.8	0.000608014	1.96599	1.2961
6.07806	1.97178	2.69165	17.7005	1604.49	0.000602527	1.80698	1.2961
6.17618	1.97474	2.69841	17.5002	1600.32	0.000597261	1.65224	1.2961
6.2747	1.97745	2.70494	17.3089	1596.31	0.000592217	1.50196	1.2961
6.37363	1.97992	2.71125	17.1262	1592.45	0.000587387	1.35611	1.2961
6.47296	1.98215	2.71733	16.9518	1588.73	0.000582766	1.21474	1.2961
6.57266	1.98414	2.72319	16.7857	1585.16	0.000578355	1.07802	1.2961
6.67272	1.98591	2.72879	16.6282	1581.75	0.000574165	0.946426	1.2961
6.77313	1.98746	2.73414	16.4793	1578.5	0.000570194	0.820102	1.2961
6.87391	1.98879	2.73926	16.338	1575.4	0.000566419	0.698573	1.2961
6.975	1.98992	2.7441	16.2053	1572.46	0.000562866	0.582782	1.2961
7.0764	1.99085	2.74867	16.0814	1569.71	0.000559541	0.4731	1.2961
7.1781	1.9916	2.75293	15.9665	1567.14	0.000556455	0.37007	1.2961
7.28008	1.99217	2.7569	15.8604	1564.76	0.0005536	0.273694	1.2961
7.38232	1.99258	2.76051	15.7645	1562.59	0.000551015	0.185436	1.2961
7.48479	1.99284	2.76371	15.68	1560.67	0.000548734	0.106686	1.2961
7.58746	1.99297	2.76637	15.6098	1559.07	0.000546838	0.0405368	1.2961
7.69031	1.993	2.768	15.5672	1558.1	0.000545686	0	1.2961
zone t="RRC BD"
0.0781396	1.00808	1.5084	120.662	2487.56	0.00264927	11.8034	1.2961
0.0809623	1.00647	1.50829	120.68	2487.64	0.00264957	11.8318	1.2961
0.0850486	1.00414	1.50821	120.695	2487.71	0.00264982	11.8709	1.2961
0.0892917	1.00172	1.5082	120.697	2487.72	0.00264986	11.9095	1.2961
0.0936927	0.999223	1.50825	120.687	2487.68	0.00264969	11.9474	1.2961
0.0982531	0.996636	1.50838	120.664	2487.57	0.0026493	11.9846	1.2961
0.102974	0.993963	1.50859	120.628	2487.4	0.00264868	12.021	1.2961
0.107857	0.991203	1.50888	120.577	2487.16	0.00264782	12.0565	1.2961
0.112902	0.988357	1.50925	120.511	2486.85	0.00264671	12.091	1.2961
0.118112	0.985424	1.50971	120.43	2486.47	0.00264534	12.1245	1.2961
0.123486	0.982404	1.51026	120.334	2486.01	0.0026437	12.157	1.2961
0.129027	0.979297	1.5109	120.222	2485.48	0.0026418	12.1883	1.2961
0.134734	0.976104	1.51163	120.093	2484.88	0.00263962	12.2184	1.2961
0.140608	0.972825	1.51245	119.949	2484.19	0.00263717	12.2474	1.2961
0.146651	0.96946	1.51337	119.787	2483.43	0.00263444	12.2753	1.2961
0.152861	0.96601	1.51438	119.61	2482.59	0.00263142	12.3019	1.2961
0.159241	0.962475	1.51549	119.416	2481.67	0.00262813	12.3273	1.2961
0.165788	0.958856	1.51669	119.206	2480.67	0.00262456	12.3516	1.2961
0.172505	0.955154	1.51799	118.979	2479.59	0.0026207	12.3746	1.2961
0.17939	0.951369	1.51938	118.736	2478.43	0.00261658	12.3966	1.2961
0.186443	0.947503	1.52087	118.477	2477.2	0.00261218	12.4174	1.2961
0.193663	0.943557	1.52245	118.203	2475.88	0.00260751	12.4371	1.2961
0.20105	0.939532	1.52412	117.913	2474.5	0.00260257	12.4558	1.2961
0.208603	0.935429	1.52588	117.608	2473.03	0.00259738	12.4735	1.2961
0.216321	0.93125	1.52773	117.289	2471.5	0.00259193	12.4902	1.2961
0.224203	0.926996	1.52967	116.954	2469.89	0.00258623	12.506	1.2961
0.232248	0.922668	1.53169	116.606	2468.2	0.00258029	12.5209	1.2961
0.240453	0.918269	1.5338	116.244	2466.45	0.00257411	12.535	1.2961
0.248819	0.9138	1.53599	115.869	2464.63	0.00256769	12.5482	1.2961
0.257342	0.909262	1.53827	115.48	2462.74	0.00256105	12.5607	1.2961
0.266023	0.904657	1.54062	115.079	2460.78	0.00255418	12.5725	1.2961
0.274858	0.899988	1.54306	114.666	2458.76	0.0025471	12.5836	1.2961
0.283847	0.895255	1.54557	114.24	2456.67	0.0025398	12.594	1.2961
0.292987	0.890461	1.54816	113.803	2454.52	0.00253229	12.6037	1.2961
0.302278	0.885607	1.55083	113.354	2452.3	0.00252458	12.6128	1.2961
0.311716	0.880695	1.55358	112.893	2450.02	0.00251666	12.6213	1.2961
0.321301	0.875727	1.5564	112.422	2447.68	0.00250855	12.6292	1.2961
0.331032	0.870705	1.55929	111.939	2445.28	0.00250024	12.6364	1.2961
0.340905	0.865629	1.56227	111.446	2442.81	0.00249173	12.6431	1.2961
0.350921	0.860503	1.56531	110.941	2440.28	0.00248303	12.6491	1.2961
0.361077	0.855327	1.56844	110.426	2437.69	0.00247413	12.6545	1.2961
0.371372	0.850102	1.57163	109.901	2435.03	0.00246504	12.6592	1.2961
0.381804	0.844831	1.57491	109.365	2432.32	0.00245576	12.6632	1.2961
0.392373	0.839515	1.57827	108.818	2429.53	0.00244628	12.6665	1.2961
0.403078	0.834155	1.5817	108.261	2426.68	0.00243661	12.6691	1.2961
0.413916	0.828753	1.58522	107.693	2423.77	0.00242674	12.6708	1.2961
0.424888	0.82331	1.58881	107.114	2420.79	0.00241667	12.6717	1.2961
0.435992	0.817826	1.59249	106.525	2417.74	0.00240641	12.6717	1.2961
0.447227	0.812305	1.59625	105.925	2414.62	0.00239594	12.6707	1.2961
0.458592	0.806745	1.6001	105.313	2411.43	0.00238526	12.6688	1.2961
0.470088	0.80115	1.60404	104.691	2408.17	0.00237438	12.6657	1.2961
0.481712	0.795519	1.60807	104.058	2404.83	0.00236329	12.6616	1.2961
0.493465	0.789853	1.61219	103.413	2401.42	0.00235199	12.6563	1.2961
0.505346	0.784155	1.6164	102.758	2397.93	0.00234048	12.6497	1.2961
0.517354	0.778424	1.62071	102.091	2394.37	0.00232875	12.6419	1.2961
0.529488	0.772663	1.62511	101.413	2390.73	0.00231681	12.6327	1.2961
0.541748	0.766871	1.62962	100.723	2387	0.00230465	12.6221	1.2961
0.554133	0.761049	1.63422	100.023	2383.2	0.00229227	12.61	1.2961
0.566642	0.7552	1.63892	99.3106	2379.31	0.00227967	12.5964	1.2961
0.579275	0.749323	1.64373	98.5874	2375.34	0.00226685	12.5812	1.2961
0.59203	0.74342	1.64864	97.853	2371.29	0.00225381	12.5644	1.2961
0.604907	0.737492	1.65365	97.1076	2367.15	0.00224055	12.5459	1.2961
0.617905	0.73154	1.65877	96.3513	2362.93	0.00222708	12.5257	1.2961
0.631023	0.725564	1.664	95.5841	2358.62	0.00221338	12.5037	1.2961
0.644258	0.719566	1.66934	94.8064	2354.22	0.00219947	12.4799	1.2961
0.657611	0.713547	1.67479	94.0182	2349.73	0.00218535	12.4542	1.2961
0.67108	0.707508	1.68035	93.2197	2345.16	0.00217102	12.4266	1.2961
0.684348	0.70159	1.68554	92.4791	2340.89	0.0021577	12.409	1.2961
0.697427	0.695787	1.69045	91.783	2336.85	0.00214516	12.3989	1.2961
0.71019	0.690154	1.69504	91.1363	2333.08	0.00213349	12.3962	1.2961
0.723318	0.684391	1.70013	90.4225	2328.89	0.00212058	12.3818	1.2961
0.736367	0.678692	1.70513	89.7271	2324.79	0.00210799	12.3703	1.2961
0.749489	0.672992	1.71022	89.0239	2320.61	0.00209523	12.3573	1.2961
0.762949	0.667176	1.71573	88.2679	2316.1	0.00208149	12.3351	1.2961
0.776256	0.661455	1.72103	87.546	2311.76	0.00206834	12.3185	1.2961
0.789631	0.655736	1.72641	86.8187	2307.35	0.00205507	12.3007	1.2961
0.803347	0.649902	1.73221	86.0395	2302.61	0.00204083	12.2737	1.2961
0.817199	0.644042	1.73818	85.2443	2297.73	0.00202626	12.2434	1.2961
0.83062	0.638393	1.7436	84.528	2293.3	0.00201311	12.2264	1.2961
0.844472	0.632595	1.74957	83.7448	2288.43	0.0019987	12.1971	1.2961
0.85857	0.626723	1.75586	82.9264	2283.3	0.00198361	12.161	1.2961
0.872703	0.620868	1.7622	82.1081	2278.13	0.0019685	12.124	1.2961
0.886379	0.615232	1.76798	81.3684	2273.43	0.0019548	12.1002	1.2961
0.900476	0.609453	1.77432	80.564	2268.27	0.00193987	12.0641	1.2961
0.914798	0.603611	1.78097	79.7277	2262.87	0.00192432	12.021	1.2961
0.929235	0.597752	1.78779	78.8768	2257.33	0.00190845	11.974	1.2961
0.943203	0.592113	1.79406	78.1024	2252.25	0.00189398	11.9398	1.2961
0.957298	0.586451	1.80054	77.3091	2247	0.00187912	11.9008	1.2961
0.971673	0.580705	1.80743	76.4739	2241.44	0.00186344	11.8527	1.2961
0.986176	0.574935	1.81453	75.6206	2235.7	0.00184737	11.7995	1.2961
1.00072	0.569178	1.82174	74.762	2229.87	0.00183117	11.7434	1.2961
1.01472	0.563663	1.82834	73.9846	2224.55	0.00181646	11.7011	1.2961
1.02885	0.558121	1.8352	73.1846	2219.04	0.00180129	11.6526	1.2961
1.04323	0.552511	1.84244	72.348	2213.21	0.00178538	11.5951	1.2961
1.05768	0.546895	1.84986	71.4982	2207.25	0.00176918	11.5327	1.2961
1.07212	0.541308	1.85738	70.6474	2201.22	0.00175291	11.4678	1.2961
1.08641	0.535804	1.86481	69.8152	2195.27	0.00173696	11.4039	1.2961
1.10005	0.530574	1.87157	69.0659	2189.86	0.00172256	11.354	1.2961
1.10214	0.529775	1.87351	68.8527	2188.32	0.00171846	11.3177	1.2961
1.10639	0.528149	1.87653	68.5213	2185.91	0.00171207	11.2729	1.2961
1.11366	0.525369	1.88052	68.0848	2182.72	0.00170365	11.2336	1.2961
1.12441	0.521272	1.88607	67.4828	2178.29	0.00169202	11.187	1.2961
1.13883	0.515797	1.89343	66.692	2172.44	0.0016767	11.1275	1.2961
1.15684	0.508989	1.90252	65.7266	2165.21	0.00165794	11.0572	1.2961
1.17854	0.500836	1.91349	64.5775	2156.5	0.00163553	10.9726	1.2961
1.20424	0.491246	1.92679	63.2101	2145.99	0.00160875	10.8644	1.2961
1.23491	0.479883	1.94367	61.5111	2132.67	0.00157528	10.7047	1.2961
1.252	0.473586	1.95386	60.5064	2124.66	0.00155539	10.5917	1.2961
1.27311	0.465834	1.9676	59.1744	2113.88	0.0015289	10.415	1.2961
1.29962	0.456128	1.98693	57.3466	2098.79	0.00149234	10.1263	1.2961
1.32481	0.44693	2.00213	55.946	2086.96	0.00146414	9.94956	1.2961
1.34661	0.438997	2.01709	54.5983	2075.37	0.00143685	9.7396	1.2961
1.37507	0.428672	2.03437	53.079	2062.03	0.0014059	9.53434	1.2961
1.39483	0.421522	2.04767	51.9368	2051.81	0.0013825	9.35129	1.2961
1.42651	0.410086	2.06701	50.3158	2037	0.00134909	9.11789	1.2961
1.4447	0.403535	2.079	49.3351	2027.86	0.00132876	8.95653	1.2961
1.46077	0.397754	2.08873	48.5519	2020.46	0.00131245	8.84006	1.2961
1.4808	0.39056	2.10189	47.5113	2010.49	0.0012907	8.66304	1.2961
1.4968	0.384822	2.11177	46.7445	2003.03	0.00127459	8.54084	1.2961
1.51367	0.378777	2.12279	45.9025	1994.73	0.00125684	8.39331	1.2961
1.53622	0.370701	2.13687	44.8469	1984.15	0.00123448	8.2154	1.2961
1.55244	0.364899	2.14735	44.0771	1976.32	0.0012181	8.07689	1.2961
1.56793	0.359361	2.15703	43.3765	1969.1	0.00120314	7.95413	1.2961
1.59499	0.349693	2.17445	42.1427	1956.16	0.00117665	7.72413	1.2961
1.61029	0.344232	2.1841	41.4739	1949.02	0.00116221	7.59988	1.2961
1.62579	0.338695	2.19408	40.792	1941.66	0.00114744	7.46757	1.2961
1.64089	0.333305	2.20362	40.1508	1934.64	0.0011335	7.34414	1.2961
1.65635	0.327788	2.21355	39.4937	1927.36	0.00111916	7.21283	1.2961
1.67134	0.322438	2.22305	38.8743	1920.41	0.00110559	7.08902	1.2961
1.68638	0.317066	2.2327	38.2553	1913.38	0.00109199	6.96158	1.2961
1.70123	0.311767	2.24213	37.6593	1906.53	0.00107884	6.83826	1.2961
1.72086	0.304754	2.25469	36.8789	1897.43	0.00106155	6.6723	1.2961
1.73559	0.299492	2.26406	36.3069	1890.67	0.00104882	6.5492	1.2961
1.75032	0.29423	2.27347	35.7413	1883.9	0.00103619	6.42483	1.2961
1.76493	0.289006	2.28277	35.1908	1877.23	0.00102386	6.30255	1.2961
1.78885	0.280447	2.29803	34.3044	1866.32	0.0010039	6.10072	1.2961
1.80336	0.275252	2.30727	33.7789	1859.75	0.000992015	5.97897	1.2961
1.81786	0.270059	2.31651	33.2607	1853.2	0.000980253	5.85675	1.2961
1.83228	0.264888	2.32568	32.7543	1846.71	0.000968717	5.73584	1.2961
1.86064	0.254709	2.34373	31.7789	1834	0.000946383	5.49712	1.2961
1.87499	0.249553	2.35284	31.2974	1827.62	0.000935301	5.37689	1.2961
1.88932	0.244395	2.36196	30.8226	1821.24	0.000924334	5.25625	1.2961
1.90361	0.239251	2.37102	30.3578	1814.93	0.000913562	5.13673	1.2961
1.9179	0.234104	2.38009	29.8995	1808.64	0.000902903	5.01686	1.2961
1.93661	0.227353	2.39194	29.3107	1800.44	0.000889153	4.86052	1.2961
1.95087	0.222201	2.40098	28.8696	1794.21	0.000878809	4.74124	1.2961
1.9651	0.217054	2.40998	28.4365	1788.03	0.000868621	4.6226	1.2961
1.97932	0.211904	2.41897	28.0101	1781.86	0.000858555	4.50399	1.2961
1.99353	0.206755	2.42794	27.5912	1775.74	0.000848632	4.38587	1.2961
2.01723	0.198149	2.44289	26.9064	1765.57	0.000832334	4.18897	1.2961
2.03144	0.192981	2.45184	26.5047	1759.52	0.00082273	4.07133	1.2961
2.04565	0.187806	2.46079	26.109	1753.48	0.000813236	3.95369	1.2961
2.05984	0.182628	2.46971	25.7201	1747.48	0.000803876	3.83659	1.2961
2.07405	0.177442	2.47863	25.3371	1741.5	0.000794623	3.71951	1.2961
2.08824	0.17225	2.48753	24.9605	1735.55	0.000785494	3.60284	1.2961
2.10302	0.16684	2.49679	24.5747	1729.39	0.00077611	3.48156	1.2961
2.11725	0.16162	2.50569	24.2092	1723.48	0.000767188	3.36505	1.2961
2.13148	0.15639	2.51459	23.8493	1717.59	0.000758375	3.24873	1.2961
2.14573	0.15115	2.52348	23.4951	1711.73	0.000749671	3.13268	1.2961
2.15997	0.1459	2.53236	23.1464	1705.89	0.000741072	3.01682	1.2961
2.17423	0.140638	2.54123	22.8031	1700.08	0.000732577	2.90117	1.2961
2.19459	0.133109	2.55389	22.3223	1691.82	0.000720631	2.7365	1.2961
2.20891	0.127805	2.56277	21.991	1686.05	0.000712364	2.62113	1.2961
2.22324	0.122487	2.57165	21.6646	1680.3	0.000704192	2.50586	1.2961
2.23758	0.117155	2.58052	21.3433	1674.58	0.000696121	2.39091	1.2961
2.25194	0.111808	2.58939	21.0268	1668.87	0.000688142	2.27608	1.2961
2.26631	0.106444	2.59826	20.715	1663.18	0.000680257	2.16145	1.2961
2.29268	0.0965828	2.61449	20.1564	1652.83	0.000666059	1.95202	1.2961
2.30714	0.0911611	2.62337	19.8573	1647.19	0.00065842	1.83781	1.2961
2.32163	0.0857188	2.63226	19.5621	1641.57	0.000650856	1.72336	1.2961
2.33614	0.0802603	2.64113	19.272	1635.97	0.000643395	1.60957	1.2961
2.35067	0.0747806	2.65002	18.9856	1630.39	0.000636006	1.49555	1.2961
2.36523	0.0692824	2.6589	18.7039	1624.83	0.000628713	1.38203	1.2961
2.37982	0.0637625	2.66779	18.426	1619.28	0.000621493	1.26836	1.2961
2.39814	0.0568119	2.67893	18.0836	1612.36	0.000612564	1.12633	1.2961
2.41282	0.0512322	2.68784	17.8143	1606.84	0.000605514	1.01283	1.2961
2.42753	0.0456304	2.69675	17.5492	1601.35	0.000598548	0.899617	1.2961
2.44228	0.0400054	2.70567	17.2878	1595.87	0.000591659	0.786488	1.2961
2.45705	0.034357	2.71459	17.0303	1590.4	0.000584848	0.673582	1.2961
2.47186	0.0286844	2.72351	16.7766	1584.96	0.000578113	0.560783	1.2961
2.4867	0.0229871	2.73244	16.5264	1579.53	0.000571452	0.448066	1.2961
2.51199	0.0132514	2.74762	16.1099	1570.34	0.000560307	0.256906	1.2961
2.52696	0.00747321	2.75656	15.8694	1564.96	0.000553843	0.144899	1.2961
2.54197	0.00166744	2.76552	15.6323	1559.59	0.000547447	0.031097	1.2961
2.54628	0	2.768	15.5672	1558.1	0.000545686	0	1.2961
zone t="LRC DE"
2.54628	0	2.768	15.5672	1558.1	0.000545686	0	1.2961
2.59772	0.01993	2.768	15.5672	1558.1	0.000545686	0	1.2961
2.64916	0.03986	2.768	15.5672	1558.1	0.000545686	0	1.2961
2.7006	0.0597899	2.768	15.5672	1558.1	0.000545686	0	1.2961
2.75204	0.0797199	2.768	15.5672	1558.1	0.000545686	0	1.2961
2.80348	0.0996499	2.768	15.5672	1558.1	0.000545686	0	1.2961
2.85492	0.11958	2.768	15.5672	1558.1	0.000545686	0	1.2961
2.90636	0.13951	2.768	15.5672	1558.1	0.000545686	0	1.2961
2.9578	0.15944	2.768	15.5672	1558.1	0.000545686	0	1.2961
3.00924	0.17937	2.768	15.5672	1558.1	0.000545686	0	1.2961
3.06068	0.1993	2.768	15.5672	1558.1	0.000545686	0	1.2961
3.11212	0.21923	2.768	15.5672	1558.1	0.000545686	0	1.2961
3.16356	0.23916	2.768	15.5672	1558.1	0.000545686	0	1.2961
3.215	0.25909	2.768	15.5672	1558.1	0.000545686	0	1.2961
3.26644	0.27902	2.768	15.5672	1558.1	0.000545686	0	1.2961
3.31788	0.29895	2.768	15.5672	1558.1	0.000545686	0	1.2961
3.36932	0.31888	2.768	15.5672	1558.1	0.000545686	0	1.2961
3.42076	0.33881	2.768	15.5672	1558.1	0.000545686	0	1.2961
3.4722	0.35874	2.768	15.5672	1558.1	0.000545686	0	1.2961
3.52364	0.37867	2.768	15.5672	1558.1	0.000545686	0	1.2961
3.57508	0.3986	2.768	15.5672	1558.1	0.000545686	0	1.2961
3.62652	0.41853	2.768	15.5672	1558.1	0.000545686	0	1.2961
3.67796	0.438459	2.768	15.5672	1558.1	0.000545686	0	1.2961
3.7294	0.458389	2.768	15.5672	1558.1	0.000545686	0	1.2961
3.78084	0.478319	2.768	15.5672	1558.1	0.000545686	0	1.2961
3.83228	0.498249	2.768	15.5672	1558.1	0.000545686	0	1.2961
3.88372	0.518179	2.768	15.5672	1558.1	0.000545686	0	1.2961
3.93516	0.538109	2.768	15.5672	1558.1	0.000545686	0	1.2961
3.98661	0.558039	2.768	15.5672	1558.1	0.000545686	0	1.2961
4.03805	0.577969	2.768	15.5672	1558.1	0.000545686	0	1.2961
4.08949	0.597899	2.768	15.5672	1558.1	0.000545686	0	1.2961
4.14093	0.617829	2.768	15.5672	1558.1	0.000545686	0	1.2961
4.19237	0.637759	2.768	15.5672	1558.1	0.000545686	0	1.2961
4.24381	0.657689	2.768	15.5672	1558.1	0.000545686	0	1.2961
4.29525	0.677619	2.768	15.5672	1558.1	0.000545686	0	1.2961
4.34669	0.697549	2.768	15.5672	1558.1	0.000545686	0	1.2961
4.39813	0.717479	2.768	15.5672	1558.1	0.000545686	0	1.2961
4.44957	0.737409	2.768	15.5672	1558.1	0.000545686	0	1.2961
4.50101	0.757339	2.768	15.5672	1558.1	0.000545686	0	1.2961
4.55245	0.777269	2.768	15.5672	1558.1	0.000545686	0	1.2961
4.60389	0.797199	2.768	15.5672	1558.1	0.000545686	0	1.2961
4.65533	0.817129	2.768	15.5672	1558.1	0.000545686	0	1.2961
4.70677	0.837059	2.768	15.5672	1558.1	0.000545686	0	1.2961
4.75821	0.856989	2.768	15.5672	1558.1	0.000545686	0	1.2961
4.80965	0.876919	2.768	15.5672	1558.1	0.000545686	0	1.2961
4.86109	0.896849	2.768	15.5672	1558.1	0.000545686	0	1.2961
4.91253	0.916779	2.768	15.5672	1558.1	0.000545686	0	1.2961
4.96397	0.936709	2.768	15.5672	1558.1	0.000545686	0	1.2961
5.01541	0.956639	2.768	15.5672	1558.1	0.000545686	0	1.2961
5.06685	0.976569	2.768	15.5672	1558.1	0.000545686	0	1.2961
5.11829	0.996499	2.768	15.5672	1558.1	0.000545686	0	1.2961
5.16973	1.01643	2.768	15.5672	1558.1	0.000545686	0	1.2961
5.22117	1.03636	2.768	15.5672	1558.1	0.000545686	0	1.2961
5.27261	1.05629	2.768	15.5672	1558.1	0.000545686	0	1.2961
5.32405	1.07622	2.768	15.5672	1558.1	0.000545686	0	1.2961
5.37549	1.09615	2.768	15.5672	1558.1	0.000545686	0	1.2961
5.42693	1.11608	2.768	15.5672	1558.1	0.000545686	0	1.2961
5.47837	1.13601	2.768	15.5672	1558.1	0.000545686	0	1.2961
5.52981	1.15594	2.768	15.5672	1558.1	0.000545686	0	1.2961
5.58125	1.17587	2.768	15.5672	1558.1	0.000545686	0	1.2961
5.63269	1.1958	2.768	15.5672	1558.1	0.000545686	0	1.2961
5.68413	1.21573	2.768	15.5672	1558.1	0.000545686	0	1.2961
5.73557	1.23566	2.768	15.5672	1558.1	0.000545686	0	1.2961
5.78702	1.25559	2.768	15.5672	1558.1	0.000545686	0	1.2961
5.83846	1.27552	2.768	15.5672	1558.1	0.000545686	0	1.2961
5.8899	1.29545	2.768	15.5672	1558.1	0.000545686	0	1.2961
5.94134	1.31538	2.768	15.5672	1558.1	0.000545686	0	1.2961
5.99278	1.33531	2.768	15.5672	1558.1	0.000545686	0	1.2961
6.04422	1.35524	2.768	15.5672	1558.1	0.000545686	0	1.2961
6.09566	1.37517	2.768	15.5672	1558.1	0.000545686	0	1.2961
6.1471	1.3951	2.768	15.5672	1558.1	0.000545686	0	1.2961
6.19854	1.41503	2.768	15.5672	1558.1	0.000545686	0	1.2961
6.24998	1.43496	2.768	15.5672	1558.1	0.000545686	0	1.2961
6.30142	1.45489	2.768	15.5672	1558.1	0.000545686	0	1.2961
6.35286	1.47482	2.768	15.5672	1558.1	0.000545686	0	1.2961
6.4043	1.49475	2.768	15.5672	1558.1	0.000545686	0	1.2961