VARIABLES = "X/R","R/R","Mach","Theta","Massflow","I",
TITLE = "RRC Contours"
text  x=5  y=93  t="MOC Grid Data"
zone t="J = 0"
0	1	1.17873	0	0.553029	0
1.28309e-05	0.999979	1.17874	0.00143401	0.553006	1
5.13262e-05	0.999918	1.17879	0.00573428	0.552938	2
0.000115502	0.999815	1.17886	0.0128965	0.552823	3
0.000205386	0.999671	1.17897	0.0229141	0.552663	4
0.000321024	0.999486	1.1791	0.0357782	0.552458	5
0.000462471	0.99926	1.17927	0.0514773	0.552206	6
0.000629799	0.998993	1.17947	0.069998	0.55191	7
0.000823091	0.998685	1.17969	0.0913243	0.551567	8
0.00104245	0.998335	1.17995	0.115438	0.551179	9
0.00128798	0.997945	1.18024	0.142319	0.550746	10
0.00155981	0.997514	1.18056	0.171943	0.550267	11
0.00185808	0.997042	1.18091	0.204287	0.549743	12
0.00218295	0.996528	1.18129	0.239322	0.549173	13
0.00253458	0.995974	1.18171	0.277019	0.548558	14
0.00291314	0.99538	1.18215	0.317346	0.547898	15
0.00331884	0.994744	1.18263	0.360269	0.547193	16
0.00375188	0.994067	1.18314	0.405753	0.546443	17
0.00421248	0.99335	1.18368	0.453758	0.545648	18
0.00470087	0.992593	1.18426	0.504243	0.544809	19
0.0052173	0.991794	1.18487	0.557167	0.543924	20
0.00576204	0.990955	1.18551	0.612485	0.542996	21
0.00633534	0.990076	1.18619	0.670149	0.542022	22
0.00693751	0.989156	1.1869	0.730112	0.541004	23
0.00756883	0.988195	1.18764	0.792321	0.539942	24
0.00822962	0.987195	1.18842	0.856724	0.538836	25
0.0089202	0.986154	1.18924	0.923267	0.537687	26
0.0096409	0.985073	1.19009	0.991893	0.536493	27
0.0103921	0.983952	1.19097	1.06254	0.535256	28
0.0111741	0.982791	1.19189	1.13516	0.533975	29
0.0119873	0.981589	1.19285	1.20967	0.532651	30
0.0128321	0.980349	1.19385	1.28603	0.531284	31
0.0137089	0.979068	1.19488	1.36416	0.529873	32
0.0146181	0.977747	1.19595	1.44399	0.528421	33
0.0155601	0.976387	1.19706	1.52546	0.526925	34
0.0165353	0.974988	1.1982	1.6085	0.525387	35
0.0175442	0.973549	1.19938	1.69304	0.523807	36
0.0185872	0.972071	1.20061	1.779	0.522186	37
0.0196648	0.970553	1.20187	1.86631	0.520522	38
0.0207774	0.968997	1.20316	1.9549	0.518817	39
0.0219256	0.967401	1.2045	2.04468	0.51707	40
0.0231097	0.965767	1.20588	2.13559	0.515283	41
0.0243303	0.964094	1.2073	2.22754	0.513455	42
0.025588	0.962382	1.20875	2.32046	0.511586	43
0.0268831	0.960631	1.21025	2.41426	0.509677	44
0.0282162	0.958842	1.21178	2.50887	0.507729	45
0.0295879	0.957015	1.21336	2.6042	0.50574	46
0.0309986	0.95515	1.21497	2.70017	0.503712	47
0.0324489	0.953247	1.21663	2.7967	0.501645	48
0.0339394	0.951306	1.21832	2.89371	0.499539	49
0.0354705	0.949327	1.22005	2.99112	0.497395	50
0.0370428	0.94731	1.22183	3.08885	0.495212	51
0.0386569	0.945256	1.22364	3.1868	0.492992	52
0.0403133	0.943164	1.22549	3.28491	0.490734	53
0.0420125	0.941036	1.22738	3.38309	0.488439	54
0.0437551	0.93887	1.22931	3.48125	0.486107	55
0.0455417	0.936667	1.23128	3.57932	0.483739	56
0.0473728	0.934428	1.23328	3.67722	0.481334	57
0.0492489	0.932152	1.23532	3.77486	0.478894	58
0.0511706	0.929839	1.2374	3.87217	0.476419	59
0.0531385	0.927491	1.23952	3.96908	0.473909	60
0.055153	0.925106	1.24167	4.06549	0.471364	61
0.0572148	0.922685	1.24386	4.16135	0.468785	62
0.0593243	0.920228	1.24608	4.25657	0.466173	63
0.0614821	0.917736	1.24834	4.35109	0.463527	64
0.0636887	0.915208	1.25063	4.44483	0.460849	65
0.0659446	0.912645	1.25296	4.53772	0.458139	66
0.0682503	0.910047	1.25531	4.62969	0.455396	67
0.0706063	0.907414	1.2577	4.72068	0.452623	68
0.0730131	0.904746	1.26012	4.81063	0.449819	69
0.0754712	0.902044	1.26257	4.89947	0.446984	70
0.0779809	0.899307	1.26505	4.98714	0.444119	71
0.0805429	0.896536	1.26755	5.07358	0.441226	72
0.0831574	0.893731	1.27009	5.15874	0.438303	73
0.0858249	0.890893	1.27265	5.24257	0.435352	74
0.0885459	0.888021	1.27523	5.32502	0.432374	75
0.0913207	0.885115	1.27784	5.40603	0.429369	76
0.0941497	0.882176	1.28047	5.48556	0.426337	77
0.0970332	0.879204	1.28313	5.56357	0.423279	78
0.0999716	0.8762	1.2858	5.64001	0.420196	79
0.102965	0.873163	1.2885	5.71486	0.417088	80
0.106014	0.870093	1.29121	5.78806	0.413956	81
0.109119	0.866992	1.29394	5.85959	0.4108	82
0.11228	0.863858	1.29669	5.92943	0.407622	83
0.115498	0.860693	1.29946	5.99753	0.404422	84
0.118772	0.857497	1.30223	6.06389	0.401199	85
0.122102	0.854269	1.30502	6.12847	0.397956	86
0.12549	0.85101	1.30783	6.19125	0.394693	87
0.128934	0.84772	1.31064	6.25222	0.39141	88
0.132436	0.8444	1.31347	6.31137	0.388108	89
0.135995	0.841049	1.3163	6.36868	0.384788	90
0.139612	0.837668	1.31914	6.42414	0.381451	91
0.143286	0.834258	1.32198	6.47776	0.378096	92
0.147018	0.830818	1.32484	6.52951	0.374726	93
0.150807	0.827348	1.32769	6.57941	0.37134	94
0.154653	0.823849	1.33055	6.62745	0.367939	95
0.158558	0.820322	1.33341	6.67364	0.364524	96
0.162519	0.816765	1.33627	6.71799	0.361096	97
0.166538	0.813181	1.33914	6.76049	0.357656	98
0.170615	0.809568	1.342	6.80116	0.354203	99
0.174748	0.805927	1.34486	6.84001	0.35074	100
0.178939	0.802259	1.34772	6.87706	0.347266	101
0.183187	0.798564	1.35057	6.91232	0.343782	102
0.187491	0.794841	1.35343	6.9458	0.34029	103
0.191852	0.791091	1.35627	6.97753	0.336789	104
0.196269	0.787315	1.35911	7.00753	0.333281	105
0.200743	0.783513	1.36195	7.03582	0.329766	106
0.205272	0.779684	1.36478	7.06242	0.326245	107
0.209856	0.77583	1.3676	7.08736	0.322719	108
0.214496	0.771951	1.37042	7.11065	0.319188	109
0.219191	0.768046	1.37323	7.13234	0.315654	110
0.223941	0.764116	1.37603	7.15244	0.312116	111
0.228745	0.760162	1.37882	7.17098	0.308576	112
0.233602	0.756183	1.3816	7.188	0.305035	113
0.238514	0.75218	1.38437	7.20351	0.301493	114
0.243478	0.748153	1.38714	7.21756	0.29795	115
0.248495	0.744103	1.38989	7.23018	0.294408	116
0.253565	0.74003	1.39264	7.24138	0.290867	117
0.258687	0.735933	1.39538	7.25121	0.287328	118
0.26386	0.731815	1.39811	7.2597	0.283792	119
0.269084	0.727673	1.40083	7.26687	0.280259	120
0.274359	0.72351	1.40354	7.27276	0.276731	121
0.279684	0.719325	1.40625	7.27739	0.273206	122
0.285058	0.715119	1.40894	7.28081	0.269688	123
0.290482	0.710891	1.41163	7.28303	0.266175	124
0.295955	0.706643	1.41432	7.28409	0.262669	125
0.301476	0.702374	1.41699	7.28402	0.259171	126
0.307044	0.698085	1.41966	7.28284	0.25568	127
0.31266	0.693776	1.42233	7.28059	0.252198	128
0.318323	0.689448	1.42499	7.27729	0.248726	129
0.324032	0.6851	1.42764	7.27297	0.245263	130
0.329787	0.680733	1.4303	7.26766	0.241811	131
0.335587	0.676348	1.43295	7.26138	0.238371	132
0.341432	0.671944	1.4356	7.25415	0.234942	133
0.347321	0.667523	1.43825	7.246	0.231526	134
0.353254	0.663084	1.4409	7.23695	0.228122	135
0.359231	0.658627	1.44355	7.22702	0.224733	136
0.36525	0.654154	1.4462	7.21624	0.221357	137
0.371311	0.649663	1.44886	7.20462	0.217996	138
0.377415	0.645157	1.45152	7.19218	0.214651	139
0.383559	0.640634	1.45419	7.17894	0.211322	140
0.389745	0.636096	1.45686	7.16492	0.208009	141
0.39597	0.631543	1.45954	7.15013	0.204713	142
0.402236	0.626974	1.46223	7.13459	0.201435	143
0.408541	0.622391	1.46493	7.11831	0.198175	144
0.414885	0.617793	1.46764	7.10131	0.194933	145
0.421267	0.613182	1.47036	7.08359	0.191711	146
0.427688	0.608557	1.4731	7.06517	0.188508	147
0.434145	0.603919	1.47585	7.04606	0.185326	148
0.44064	0.599267	1.47861	7.02626	0.182164	149
0.447171	0.594604	1.4814	7.00579	0.179024	150
0.453739	0.589927	1.4842	6.98465	0.175905	151
0.460342	0.58524	1.48702	6.96286	0.172808	152
0.46698	0.58054	1.48986	6.94041	0.169734	153
0.473653	0.575829	1.49272	6.91731	0.166682	154
0.48036	0.571108	1.49561	6.89356	0.163655	155
0.487101	0.566376	1.49852	6.86918	0.160651	156
0.490488	0.561634	1.49754	6.79542	0.157887	157
0.493869	0.556883	1.49658	6.72208	0.155142	158
0.500616	0.552122	1.49952	6.69626	0.152209	159
0.504006	0.547352	1.49864	6.62334	0.149507	160
0.507389	0.542573	1.4978	6.55082	0.146824	161
0.510765	0.537786	1.49699	6.47872	0.144161	162
0.517503	0.532991	1.49997	6.45116	0.141327	163
0.520887	0.528189	1.49925	6.37947	0.13871	164
0.524264	0.523379	1.49856	6.30817	0.136114	165
0.527633	0.518563	1.49791	6.23727	0.133539	166
0.530996	0.513741	1.4973	6.16676	0.130986	167
0.534351	0.508912	1.49674	6.09665	0.128455	168
0.541048	0.504078	1.49981	6.0668	0.125776	169
0.544409	0.499238	1.49933	5.99707	0.123294	170
0.547763	0.494394	1.4989	5.92772	0.120835	171
0.55111	0.489545	1.4985	5.85875	0.118399	172
0.55445	0.484692	1.49816	5.79015	0.115986	173
0.557782	0.479835	1.49785	5.72192	0.113597	174
0.561107	0.474975	1.49759	5.65405	0.111233	175
0.564424	0.470112	1.49737	5.58656	0.108892	176
0.567734	0.465246	1.4972	5.51942	0.106576	177
0.571037	0.460379	1.49707	5.45264	0.104284	178
0.574333	0.455509	1.49699	5.38622	0.102018	179
0.577621	0.450638	1.49695	5.32016	0.0997765	180
0.580901	0.445766	1.49696	5.25444	0.0975606	181
0.584174	0.440894	1.49701	5.18908	0.0953701	182
0.58744	0.436021	1.4971	5.12406	0.0932054	183
0.590698	0.431149	1.49724	5.05939	0.0910666	184
0.593949	0.426277	1.49743	4.99506	0.0889538	185
0.597192	0.421406	1.49766	4.93107	0.0868673	186
0.600428	0.416537	1.49793	4.86742	0.0848072	187
0.603656	0.41167	1.49825	4.80411	0.0827736	188
0.606877	0.406804	1.49861	4.74114	0.0807667	189
0.610089	0.401942	1.49901	4.6785	0.0787866	190
0.613294	0.397082	1.49946	4.6162	0.0768334	191
0.616492	0.392226	1.49995	4.55424	0.0749072	192
0.618086	0.387374	1.49894	4.47986	0.0730542	193
0.621261	0.382526	1.49951	4.41872	0.0711809	194
0.622844	0.377683	1.4986	4.3457	0.0693782	195
0.625995	0.372845	1.49925	4.2854	0.0675582	196
0.629138	0.368013	1.49994	4.22542	0.0657657	197
0.630705	0.363186	1.49918	4.15431	0.06404	198
0.633825	0.358367	1.49995	4.09515	0.0623011	199
0.635381	0.353553	1.49928	4.02535	0.0606267	200
0.63693	0.348748	1.49866	3.95627	0.0589774	201
0.640011	0.343949	1.49953	3.89842	0.0573189	202
0.641548	0.339159	1.499	3.83063	0.0557212	203
0.644607	0.334378	1.49995	3.77359	0.0541167	204
0.646132	0.329605	1.4995	3.70706	0.0525709	205
0.647649	0.324842	1.4991	3.64123	0.0510504	206
0.649159	0.320089	1.49874	3.57611	0.0495552	207
0.652164	0.315346	1.49981	3.52082	0.0480578	208
0.653663	0.310614	1.49953	3.45692	0.0466146	209
0.655153	0.305893	1.49929	3.39371	0.0451968	210
0.656636	0.301184	1.49908	3.33117	0.0438044	211
0.658112	0.296487	1.49891	3.2693	0.0424373	212
0.65958	0.291802	1.49878	3.20809	0.0410956	213
0.661041	0.287131	1.49869	3.14755	0.0397792	214
0.663947	0.282473	1.49996	3.09538	0.0384671	215
0.665396	0.277828	1.49993	3.036	0.0372022	216
0.666837	0.273199	1.49993	2.97726	0.0359624	217
0.66827	0.268584	1.49997	2.91916	0.0347477	218
0.668983	0.263984	1.49939	2.8582	0.0335669	219
0.670399	0.2594	1.49948	2.80142	0.0324017	220
0.671808	0.254832	1.49961	2.74526	0.0312613	221
0.673209	0.250281	1.49976	2.68971	0.0301457	222
0.674602	0.245747	1.49994	2.63477	0.0290546	223
0.675295	0.241231	1.49952	2.57739	0.0279952	224
0.676671	0.236733	1.49975	2.52371	0.0269527	225
0.677356	0.232254	1.49939	2.46773	0.0259409	226
0.678715	0.227794	1.49967	2.41528	0.0249463	227
0.680066	0.223353	1.49998	2.3634	0.0239757	228
0.680738	0.218933	1.4997	2.30945	0.0230345	229
0.681405	0.214533	1.49945	2.2562	0.0221163	230
0.682729	0.210154	1.49982	2.20612	0.021216	231
0.683387	0.205797	1.49961	2.15418	0.0203437	232
0.684041	0.201462	1.49943	2.10291	0.019494	233
0.685338	0.19715	1.49986	2.05457	0.0186624	234
0.685982	0.19286	1.49973	2.00457	0.0178576	235
0.686622	0.188595	1.49961	1.95521	0.0170749	236
0.687257	0.184354	1.49952	1.90649	0.0163139	237
0.687887	0.180137	1.49945	1.8584	0.0155747	238
0.689137	0.175946	1.49996	1.81286	0.0148535	239
0.689757	0.17178	1.49992	1.76596	0.0141571	240
0.690373	0.167641	1.49991	1.71966	0.0134817	241
0.690983	0.163529	1.49991	1.67396	0.0128271	242
0.691589	0.159445	1.49992	1.62886	0.012193	243
0.692189	0.155388	1.49996	1.58434	0.0115793	244
0.692487	0.151361	1.49974	1.53961	0.0109867	245
0.693076	0.147362	1.4998	1.49626	0.0104127	246
0.693661	0.143393	1.49988	1.45347	0.00985824	247
0.69424	0.139455	1.49997	1.41124	0.00932309	248
0.694527	0.135548	1.49982	1.36889	0.00880784	249
0.695095	0.131672	1.49994	1.32777	0.00831039	250
0.695377	0.127829	1.49981	1.28658	0.00783218	251
0.695934	0.124019	1.49995	1.24655	0.00737132	252
0.69621	0.120242	1.49986	1.20649	0.00692902	253
0.696482	0.116499	1.49977	1.167	0.00650422	254
0.697022	0.112792	1.49994	1.12859	0.00609606	255
0.697289	0.10912	1.49989	1.0902	0.00570542	256
0.697553	0.105484	1.49984	1.05236	0.00533139	257
0.697814	0.101886	1.4998	1.01507	0.00497365	258
0.698072	0.0983246	1.49978	0.978331	0.00463188	259
0.698581	0.0948022	1.49999	0.942539	0.00430541	260
0.698833	0.091319	1.49998	0.906861	0.00399469	261
0.699081	0.0878758	1.49999	0.871721	0.00369899	262
0.699326	0.0844735	1.5	0.837117	0.00341796	263
0.699447	0.0811128	1.49991	0.802881	0.00315141	264
0.699686	0.0777946	1.49994	0.769351	0.00289872	265
0.699921	0.0745198	1.49998	0.736355	0.00265969	266
0.700037	0.0712893	1.49992	0.703753	0.00243407	267
0.700265	0.0681039	1.49996	0.671832	0.00222131	268
0.700377	0.0649647	1.49992	0.640324	0.00202123	269
0.700598	0.0618726	1.49998	0.609485	0.00183332	270
0.700707	0.0588288	1.49995	0.57908	0.00165735	271
0.700814	0.0558341	1.49993	0.549233	0.0014929	272
0.700918	0.0528898	1.49992	0.519949	0.00133958	273
0.701124	0.0499971	1.5	0.49132	0.00119699	274
0.701225	0.047157	1.49999	0.463172	0.00106485	275
0.701324	0.044371	1.5	0.435604	0.000942733	276
0.701373	0.0416403	1.49996	0.408591	0.000830269	277
0.701467	0.0389664	1.49997	0.382209	0.000727049	278
0.70156	0.0363508	1.49999	0.356434	0.000632706	279
0.701605	0.033795	1.49997	0.33125	0.000546861	280
0.701693	0.0313007	1.49999	0.306723	0.000469107	281
0.701736	0.0288697	1.49998	0.282818	0.000399069	282
0.701778	0.026504	1.49997	0.259576	0.000336344	283
0.701819	0.0242056	1.49997	0.237013	0.000280537	284
0.701858	0.0219768	1.49997	0.215149	0.000231252	285
0.701896	0.0198201	1.49998	0.194004	0.00018809	286
0.701932	0.0177382	1.49998	0.173602	0.00015065	287
0.701968	0.0157341	1.49999	0.153971	0.00011853	288
0.701984	0.0138111	1.49999	0.135138	9.13269e-05	289
0.702017	0.0119729	1.5	0.117144	6.86345e-05	290
0.702024	0.010224	1.49999	0.100024	5.00476e-05	291
0.702039	0.00856924	1.5	0.0838309	3.51581e-05	292
0.702053	0.00701454	1.5	0.068619	2.3558e-05	293
0.702059	0.00556695	1.5	0.0544563	1.4838e-05	294
0.702062	0.00423524	1.5	0.0414283	8.58808e-06	295
0.702067	0.00303068	1.5	0.0296451	4.39763e-06	296
0.702069	0.00196858	1.5	0.0192558	1.85543e-06	297
0.70207	0.0010716	1.5	0.0104818	5.49794e-07	298
0.702071	0.000378874	1.5	0.00370596	6.87271e-08	299
0.702071	0	1.5	0	0	300
zone t="J = 1"
2.56618e-05	1	1.17874	0.00147031	0.558848	0
6.41551e-05	0.999938	1.17868	0.0030496	0.558779	1
0.000128312	0.999835	1.17858	0.00567911	0.558665	2
0.000218136	0.999691	1.17843	0.00935507	0.558505	3
0.000333636	0.999506	1.17824	0.0140723	0.558299	4
0.00047482	0.99928	1.17802	0.0198242	0.558047	5
0.000641702	0.999012	1.17775	0.0266027	0.557749	6
0.000834296	0.998703	1.17744	0.0343985	0.557406	7
0.00105262	0.998352	1.17709	0.0432007	0.557016	8
0.0012967	0.997959	1.1767	0.0529973	0.55658	9
0.00156656	0.997525	1.17627	0.0637747	0.556098	10
0.00186222	0.997048	1.17581	0.0755182	0.555569	11
0.00218371	0.99653	1.1753	0.0882115	0.554993	12
0.00253108	0.995969	1.17476	0.101837	0.554371	13
0.00290435	0.995365	1.17418	0.116377	0.553701	14
0.00330356	0.994719	1.17357	0.13181	0.552985	15
0.00372876	0.99403	1.17292	0.148117	0.552221	16
0.00418	0.993298	1.17224	0.165273	0.551409	17
0.00465732	0.992522	1.17152	0.183257	0.550549	18
0.00516078	0.991702	1.17077	0.202043	0.549642	19
0.00569044	0.990838	1.16999	0.221606	0.548686	20
0.00624635	0.98993	1.16918	0.241919	0.547681	21
0.00682858	0.988977	1.16834	0.262954	0.546627	22
0.0074372	0.987979	1.16747	0.284684	0.545524	23
0.00807229	0.986936	1.16658	0.307077	0.544372	24
0.0087339	0.985847	1.16566	0.330104	0.54317	25
0.00942214	0.984711	1.16471	0.353734	0.541917	26
0.0101371	0.983529	1.16374	0.377934	0.540614	27
0.0108788	0.9823	1.16275	0.402672	0.539261	28
0.0116474	0.981024	1.16174	0.427914	0.537856	29
0.012443	0.979699	1.16071	0.453626	0.536399	30
0.0132656	0.978327	1.15966	0.479773	0.534891	31
0.0141154	0.976905	1.15859	0.50632	0.53333	32
0.0149925	0.975434	1.15751	0.533231	0.531716	33
0.015897	0.973913	1.15642	0.560471	0.53005	34
0.016829	0.972342	1.15532	0.588002	0.52833	35
0.0177887	0.970719	1.1542	0.615788	0.526557	36
0.0187761	0.969046	1.15308	0.643791	0.524729	37
0.0197914	0.96732	1.15195	0.671975	0.522847	38
0.0208347	0.965542	1.15081	0.700301	0.520909	39
0.0219061	0.96371	1.14967	0.728732	0.518917	40
0.0230058	0.961825	1.14853	0.757231	0.516869	41
0.024134	0.959885	1.14739	0.785759	0.514765	42
0.0252907	0.957891	1.14625	0.81428	0.512605	43
0.0264762	0.95584	1.14511	0.842755	0.510388	44
0.0276905	0.953734	1.14398	0.871147	0.508114	45
0.0289338	0.951571	1.14286	0.899419	0.505783	46
0.0302064	0.949351	1.14174	0.927535	0.503394	47
0.0315083	0.947073	1.14064	0.955457	0.500948	48
0.0328396	0.944736	1.13955	0.983149	0.498444	49
0.0342007	0.94234	1.13847	1.01058	0.495881	50
0.0355916	0.939884	1.13741	1.0377	0.493261	51
0.0370125	0.937368	1.13637	1.06449	0.490582	52
0.0384636	0.934792	1.13534	1.09091	0.487844	53
0.0399451	0.932154	1.13434	1.11693	0.485048	54
0.041457	0.929454	1.13336	1.14251	0.482194	55
0.0429997	0.926692	1.13241	1.16762	0.479281	56
0.0445732	0.923868	1.13149	1.19222	0.476309	57
0.0461778	0.92098	1.13059	1.2163	0.473279	58
0.0478137	0.918028	1.12972	1.23981	0.470192	59
0.0494809	0.915013	1.12889	1.26272	0.467046	60
0.0511797	0.911933	1.12809	1.28502	0.463843	61
0.0529102	0.908789	1.12732	1.30666	0.460583	62
0.0546727	0.90558	1.12659	1.32762	0.457266	63
0.0564673	0.902305	1.1259	1.34788	0.453893	64
0.0582941	0.898966	1.12525	1.36741	0.450464	65
0.0601534	0.895561	1.12465	1.38619	0.446981	66
0.0620453	0.892091	1.12408	1.40418	0.443443	67
0.0639699	0.888555	1.12356	1.42138	0.439851	68
0.0659275	0.884954	1.12308	1.43775	0.436207	69
0.0679182	0.881288	1.12265	1.45327	0.432512	70
0.0699421	0.877556	1.12227	1.46794	0.428765	71
0.0719995	0.87376	1.12194	1.48172	0.424969	72
0.0740904	0.869898	1.12166	1.4946	0.421125	73
0.076215	0.865972	1.12143	1.50657	0.417233	74
0.0783735	0.861983	1.12125	1.51761	0.413295	75
0.0805659	0.857929	1.12112	1.5277	0.409312	76
0.0827925	0.853812	1.12104	1.53684	0.405287	77
0.0850534	0.849633	1.12102	1.54501	0.401219	78
0.0873486	0.845391	1.12105	1.5522	0.397111	79
0.0896783	0.841088	1.12113	1.55841	0.392964	80
0.0920427	0.836724	1.12127	1.56362	0.38878	81
0.0944418	0.8323	1.12146	1.56783	0.38456	82
0.0968757	0.827816	1.12171	1.57103	0.380306	83
0.0993445	0.823274	1.12201	1.57323	0.376021	84
0.101848	0.818674	1.12236	1.57442	0.371705	85
0.104387	0.814017	1.12277	1.5746	0.36736	86
0.106962	0.809303	1.12323	1.57376	0.362988	87
0.109571	0.804535	1.12374	1.57192	0.358591	88
0.112216	0.799712	1.1243	1.56908	0.354171	89
0.114896	0.794836	1.12491	1.56523	0.34973	90
0.117611	0.789907	1.12557	1.56039	0.345269	91
0.120362	0.784927	1.12629	1.55456	0.34079	92
0.123149	0.779896	1.12705	1.54775	0.336295	93
0.125971	0.774816	1.12785	1.53996	0.331786	94
0.128828	0.769687	1.1287	1.53122	0.327265	95
0.131721	0.76451	1.1296	1.52152	0.322733	96
0.134649	0.759287	1.13054	1.51089	0.318192	97
0.137613	0.754018	1.13152	1.49932	0.313645	98
0.140613	0.748704	1.13255	1.48684	0.309091	99
0.143648	0.743346	1.13361	1.47346	0.304535	100
0.146718	0.737945	1.13471	1.45919	0.299976	101
0.149823	0.732503	1.13585	1.44405	0.295417	102
0.152964	0.727019	1.13703	1.42805	0.290859	103
0.156139	0.721496	1.13824	1.4112	0.286305	104
0.15935	0.715933	1.13948	1.39352	0.281754	105
0.162596	0.710331	1.14076	1.37503	0.27721	106
0.165876	0.704692	1.14206	1.35574	0.272673	107
0.169191	0.699017	1.1434	1.33565	0.268145	108
0.172541	0.693306	1.14476	1.3148	0.263628	109
0.175924	0.68756	1.14615	1.29319	0.259122	110
0.179342	0.681779	1.14756	1.27083	0.25463	111
0.182794	0.675966	1.149	1.24774	0.250152	112
0.18628	0.670119	1.15046	1.22393	0.245691	113
0.189799	0.664242	1.15195	1.19941	0.241246	114
0.193351	0.658333	1.15345	1.17419	0.23682	115
0.196936	0.652394	1.15498	1.14827	0.232414	116
0.200555	0.646425	1.15652	1.12168	0.228028	117
0.204205	0.640428	1.15808	1.0944	0.223665	118
0.207888	0.634403	1.15966	1.06646	0.219325	119
0.211603	0.62835	1.16126	1.03786	0.21501	120
0.21535	0.622271	1.16287	1.00859	0.21072	121
0.219127	0.616166	1.16449	0.978663	0.206457	122
0.222936	0.610036	1.16613	0.948077	0.202221	123
0.226776	0.603882	1.16779	0.916832	0.198014	124
0.230646	0.597704	1.16945	0.884924	0.193837	125
0.234545	0.591504	1.17113	0.85235	0.189691	126
0.238474	0.58528	1.17283	0.819104	0.185576	127
0.242433	0.579036	1.17453	0.785177	0.181494	128
0.24642	0.57277	1.17625	0.750561	0.177446	129
0.250435	0.566485	1.17797	0.715244	0.173432	130
0.254479	0.560179	1.17971	0.679213	0.169453	131
0.258549	0.553855	1.18146	0.642452	0.165511	132
0.262647	0.547513	1.18322	0.604945	0.161606	133
0.266772	0.541154	1.18499	0.566672	0.157739	134
0.270922	0.534778	1.18677	0.527611	0.15391	135
0.275098	0.528386	1.18857	0.487738	0.150121	136
0.279299	0.521979	1.19037	0.447028	0.146372	137
0.283525	0.515557	1.19219	0.405453	0.142664	138
0.287775	0.509121	1.19401	0.36298	0.138998	139
0.292048	0.502673	1.19585	0.319578	0.135374	140
0.296344	0.496211	1.1977	0.27521	0.131794	141
0.300663	0.489739	1.19956	0.229837	0.128257	142
0.305003	0.483255	1.20144	0.183418	0.124764	143
0.309365	0.476761	1.20333	0.13591	0.121317	144
0.313747	0.470258	1.20523	0.0872636	0.117915	145
0.318149	0.463746	1.20715	0.0374298	0.114559	146
0.322587	0.457203	1.20903	0	0.111238	147
0.327077	0.450614	1.21106	0	0.107944	148
0.331539	0.444106	1.21392	0	0.104741	149
0.336003	0.437647	1.21724	0	0.10161	150
0.340483	0.431221	1.22082	0	0.0985444	151
0.344987	0.424818	1.22454	0	0.0955388	152
0.34952	0.418435	1.22835	0	0.0925905	153
0.354082	0.412068	1.23223	0	0.0896984	154
0.358676	0.405718	1.23615	0	0.0868615	155
0.361854	0.401359	1.23906	0	0.0849421	156
0.365081	0.396961	1.24144	0	0.0830282	157
0.369781	0.390595	1.2446	0	0.0802979	158
0.373028	0.386225	1.24714	0	0.0784511	159
0.376308	0.381835	1.24936	0	0.0766188	160
0.379606	0.377441	1.25143	0	0.0748069	161
0.384366	0.371136	1.25448	0	0.0722457	162
0.387662	0.366796	1.257	0	0.0705101	163
0.390984	0.362445	1.25926	0	0.0687916	164
0.394323	0.358093	1.26141	0	0.0670948	165
0.397672	0.353746	1.2635	0	0.065422	166
0.401029	0.349409	1.26558	0	0.0637743	167
0.405842	0.343225	1.2687	0	0.0614629	168
0.409187	0.338952	1.27135	0	0.0598915	169
0.412556	0.33467	1.27376	0	0.0583384	170
0.41594	0.330392	1.27607	0	0.0568073	171
0.419334	0.326121	1.27833	0	0.0553	172
0.422734	0.32186	1.28059	0	0.0538174	173
0.42614	0.317612	1.28287	0	0.0523598	174
0.429551	0.313377	1.28516	0	0.0509272	175
0.432967	0.309155	1.28748	0	0.0495197	176
0.436387	0.304948	1.28983	0	0.0481372	177
0.439811	0.300754	1.29221	0	0.0467794	178
0.443239	0.296575	1.29462	0	0.0454463	179
0.446672	0.29241	1.29706	0	0.0441377	180
0.450108	0.288259	1.29954	0	0.0428534	181
0.453549	0.284123	1.30204	0	0.0415933	182
0.456993	0.280002	1.30457	0	0.040357	183
0.460442	0.275896	1.30714	0	0.0391446	184
0.463894	0.271805	1.30973	0	0.0379557	185
0.46735	0.267728	1.31236	0	0.0367901	186
0.47081	0.263667	1.31502	0	0.0356477	187
0.474273	0.259621	1.3177	0	0.0345283	188
0.477741	0.255591	1.32042	0	0.0334316	189
0.481211	0.251575	1.32316	0	0.0323575	190
0.484686	0.247575	1.32594	0	0.0313058	191
0.487456	0.244399	1.32824	0	0.0304836	192
0.490947	0.240415	1.33081	0	0.0294683	193
0.493731	0.237251	1.33303	0	0.028675	194
0.497226	0.233294	1.33559	0	0.0276985	195
0.500715	0.229362	1.33832	0	0.0267457	196
0.503505	0.226233	1.34067	0	0.0259997	197
0.507002	0.222324	1.34332	0	0.0250837	198
0.509799	0.219212	1.34564	0	0.0243665	199
0.512606	0.2161	1.3478	0	0.0236603	200
0.516108	0.212233	1.35039	0	0.0227977	201
0.518912	0.209149	1.35271	0	0.0221217	202
0.52241	0.205318	1.35539	0	0.0212966	203
0.525216	0.202257	1.35778	0	0.0206493	204
0.528029	0.199199	1.36002	0	0.0200131	205
0.530846	0.196148	1.36219	0	0.0193886	206
0.534343	0.192376	1.36484	0	0.0186308	207
0.537152	0.189357	1.36723	0	0.0180355	208
0.539968	0.186343	1.36951	0	0.0174513	209
0.542785	0.183337	1.37173	0	0.0168788	210
0.545603	0.180341	1.37393	0	0.016318	211
0.54842	0.177356	1.37612	0	0.015769	212
0.551236	0.174382	1.37831	0	0.0152319	213
0.554702	0.170736	1.38124	0	0.0145865	214
0.557503	0.167802	1.3838	0	0.0140777	215
0.560311	0.164872	1.38619	0	0.0135792	216
0.56312	0.161951	1.38849	0	0.0130914	217
0.565602	0.159378	1.3905	0	0.0126695	218
0.568412	0.156474	1.39262	0	0.012202	219
0.571217	0.153585	1.3948	0	0.0117459	220
0.574017	0.15071	1.397	0	0.0113009	221
0.576813	0.147848	1.39922	0	0.0108669	222
0.579286	0.145326	1.40121	0	0.0104916	223
0.582076	0.142487	1.40333	0	0.0100775	224
0.584544	0.139984	1.40527	0	0.00971952	225
0.587324	0.137172	1.40737	0	0.00932533	226
0.590097	0.134376	1.40954	0	0.00894182	227
0.592552	0.131909	1.41151	0	0.00861028	228
0.595004	0.12945	1.41338	0	0.00828638	229
0.597761	0.126695	1.41544	0	0.00793095	230
0.600201	0.124262	1.41735	0	0.00762388	231
0.602637	0.12184	1.41919	0	0.00732436	232
0.60537	0.119129	1.42123	0	0.00699651	233
0.607791	0.116735	1.42313	0	0.00671335	234
0.610207	0.114352	1.42496	0	0.00643756	235
0.612616	0.111982	1.42676	0	0.00616915	236
0.615018	0.109625	1.42854	0	0.0059081	237
0.617705	0.106995	1.43053	0	0.00562357	238
0.620087	0.104669	1.4324	0	0.00537804	239
0.622461	0.102357	1.4342	0	0.00513951	240
0.624827	0.100059	1.43597	0	0.00490797	241
0.627182	0.0977757	1.43773	0	0.00468337	242
0.629528	0.0955079	1.43946	0	0.00446562	243
0.631721	0.0933922	1.44108	0	0.00426727	244
0.634044	0.0911552	1.44275	0	0.00406258	245
0.636356	0.0889351	1.44443	0	0.00386453	246
0.638655	0.086732	1.44612	0	0.00367302	247
0.640803	0.0846771	1.4477	0	0.00349888	248
0.643077	0.0825078	1.44933	0	0.00331974	249
0.645201	0.080485	1.45087	0	0.00315704	250
0.647446	0.0783514	1.45247	0	0.00298996	251
0.649544	0.0763623	1.45399	0	0.00283837	252
0.651627	0.0743901	1.45547	0	0.00269205	253
0.653827	0.0723126	1.45702	0	0.0025422	254
0.65588	0.0703767	1.45851	0	0.00240649	255
0.657918	0.0684589	1.45995	0	0.0022758	256
0.65994	0.0665599	1.46137	0	0.00215005	257
0.661945	0.0646801	1.46277	0	0.00202916	258
0.664056	0.0627042	1.46425	0	0.00190594	259
0.666026	0.0608647	1.46568	0	0.00179475	260
0.667977	0.0590455	1.46707	0	0.00168813	261
0.669909	0.0572471	1.46843	0	0.00158599	262
0.671762	0.0555249	1.46973	0	0.00149122	263
0.673654	0.0537696	1.47103	0	0.00139768	264
0.675525	0.0520367	1.47234	0	0.00130835	265
0.677318	0.0503791	1.47359	0	0.00122571	266
0.679145	0.0486923	1.47485	0	0.00114441	267
0.680894	0.0470804	1.47607	0	0.00106937	268
0.682674	0.0454419	1.4773	0	0.000995734	269
0.684377	0.0438776	1.47848	0	0.000927918	270
0.686054	0.042338	1.47964	0	0.000863536	271
0.687707	0.0408236	1.48078	0	0.000802497	272
0.689385	0.0392886	1.48194	0	0.000742936	273
0.690984	0.0378269	1.48306	0	0.000688375	274
0.692557	0.0363923	1.48415	0	0.000636877	275
0.694076	0.0350077	1.4852	0	0.00058909	276
0.69559	0.0336298	1.48624	0	0.000543406	277
0.697074	0.0322815	1.48726	0	0.000500504	278
0.698503	0.030984	1.48825	0	0.000460901	279
0.699922	0.0296973	1.48923	0	0.000423255	280
0.701286	0.0284622	1.49018	0	0.000388643	281
0.702615	0.0272599	1.4911	0	0.000356378	282
0.703908	0.0260913	1.492	0	0.000326371	283
0.705164	0.0249578	1.49287	0	0.000298535	284
0.706381	0.0238605	1.49371	0	0.000272781	285
0.707557	0.022801	1.49453	0	0.000249022	286
0.708691	0.0217807	1.49533	0	0.000227174	287
0.709771	0.020809	1.49609	0	0.000207307	288
0.710814	0.0198726	1.49682	0	0.000189028	289
0.711795	0.0189918	1.49752	0	0.000172609	290
0.712729	0.0181549	1.49818	0	0.000157705	291
0.713606	0.0173684	1.49881	0	0.000144316	292
0.714421	0.0166387	1.4994	0	0.000132429	293
0.71517	0.0159686	1.49995	0	0.000121965	294
0.715849	0.0153612	1.50045	0	0.000112854	295
0.716448	0.0148264	1.5009	0	0.000105128	296
0.716953	0.0143752	1.5013	0	9.88232e-05	297
0.717343	0.0140267	1.50163	0	9.40888e-05	298
0.717557	0.0138358	1.50187	0	9.15456e-05	299
0.733061	0	1.50187	0	0	300
zone t="J = 2"
0.000102644	1	1.17879	0.00588109	0.558967	0
0.000166808	0.999897	1.17869	0.00851066	0.558853	1
0.000256641	0.999753	1.17854	0.0121867	0.558693	2
0.000372152	0.999568	1.17836	0.016904	0.558487	3
0.00051335	0.999342	1.17813	0.0226561	0.558235	4
0.000680249	0.999074	1.17786	0.0294348	0.557938	5
0.000872863	0.998765	1.17755	0.0372307	0.557594	6
0.00109121	0.998414	1.1772	0.0460332	0.557204	7
0.00133532	0.998021	1.17681	0.05583	0.556769	8
0.0016052	0.997587	1.17639	0.0666077	0.556286	9
0.00190089	0.997111	1.17592	0.0783514	0.555758	10
0.00222242	0.996593	1.17541	0.0910451	0.555182	11
0.00256982	0.996032	1.17487	0.104671	0.55456	12
0.00294313	0.995429	1.1743	0.119211	0.553891	13
0.00334239	0.994783	1.17368	0.134645	0.553174	14
0.00376763	0.994094	1.17303	0.150952	0.55241	15
0.00421892	0.993362	1.17235	0.168109	0.551599	16
0.0046963	0.992586	1.17163	0.186093	0.55074	17
0.00519981	0.991767	1.17089	0.20488	0.549832	18
0.00572953	0.990903	1.17011	0.224443	0.548877	19
0.0062855	0.989995	1.1693	0.244757	0.547872	20
0.00686781	0.989043	1.16846	0.265793	0.546819	21
0.0074765	0.988045	1.16759	0.287522	0.545716	22
0.00811166	0.987002	1.16669	0.309916	0.544564	23
0.00877335	0.985913	1.16577	0.332944	0.543362	24
0.00946167	0.984778	1.16483	0.356575	0.54211	25
0.0101767	0.983597	1.16386	0.380776	0.540808	26
0.0109185	0.982368	1.16287	0.405514	0.539454	27
0.0116872	0.981092	1.16186	0.430757	0.53805	28
0.0124829	0.979768	1.16083	0.456469	0.536594	29