VARIABLES = "X/R","Y/R","Z/R","R/R","Mach","Pres","Temp","Rho","Theta", "Gamma", "Massflow""J"
TITLE = "Streamline Data file"
text  x=5  y=93   t="Streamline Data"
zone t="MassFlow % = 0" I = 47 J = 1 K = 1
0.702071	0.0	0.0	0	1.5	4.18645	845.298	0.000265895	0	1.29	0	0
0.730565	0.0	0.0	0	1.50118	4.17927	844.972	0.000265542	0	1.29	0	3
0.728999	0.0	0.0	0	1.49973	4.1881	845.373	0.000265977	0	1.29	0	6
0.730185	0.0	0.0	0	1.49903	4.1924	845.567	0.000266188	0	1.29	0	9
0.734215	0.0	0.0	0	1.49854	4.19534	845.701	0.000266333	0	1.29	0	12
0.741225	0.0	0.0	0	1.49814	4.19781	845.813	0.000266455	0	1.29	0	15
0.75139	0.0	0.0	0	1.49778	4.20001	845.912	0.000266563	0	1.29	0	18
0.764885	0.0	0.0	0	1.49745	4.20202	846.003	0.000266662	0	1.29	0	21
0.781965	0.0	0.0	0	1.49715	4.2039	846.088	0.000266754	0	1.29	0	24
0.802828	0.0	0.0	0	1.49686	4.20567	846.169	0.000266841	0	1.29	0	27
0.827625	0.0	0.0	0	1.49658	4.20737	846.245	0.000266925	0	1.29	0	30
0.856514	0.0	0.0	0	1.49632	4.20899	846.319	0.000267004	0	1.29	0	33
0.88968	0.0	0.0	0	1.49606	4.21055	846.389	0.000267081	0	1.29	0	36
0.927323	0.0	0.0	0	1.49582	4.21207	846.458	0.000267156	0	1.29	0	39
0.969586	0.0	0.0	0	1.49558	4.21353	846.524	0.000267228	0	1.29	0	42
1.01683	0.0	0.0	0	1.49534	4.21496	846.588	0.000267298	0	1.29	0	45
1.07993	0.0	0.0	0	1.60634	3.57525	815.834	0.000235277	0	1.29	0	48
1.14871	0.0	0.0	0	1.66683	3.2611	799.139	0.000219087	0	1.29	0	51
1.2244	0.0	0.0	0	1.73608	2.93003	780.137	0.00020164	0	1.29	0	54
1.30814	0.0	0.0	0	1.80207	2.6417	762.179	0.000186081	0	1.29	0	57
1.40149	0.0	0.0	0	1.87565	2.34977	742.375	0.000169932	0	1.29	0	60
1.50613	0.0	0.0	0	1.95361	2.0722	721.69	0.000154154	0	1.29	0	63
1.62428	0.0	0.0	0	2.03968	1.80063	699.255	0.000138249	0	1.29	0	66
1.75869	0.0	0.0	0	2.13389	1.54142	675.244	0.000122556	0	1.29	0	69
1.91295	0.0	0.0	0	2.2384	1.29515	649.33	0.000107085	0	1.29	0	72
2.09177	0.0	0.0	0	2.35457	1.0657	621.48	9.20621e-05	0	1.29	0	75
2.30149	0.0	0.0	0	2.4847	0.855544	591.538	7.76488e-05	0	1.29	0	78
2.55079	0.0	0.0	0	2.63125	0.667549	559.445	6.4062e-05	0	1.29	0	81
2.8519	0.0	0.0	0	2.79759	0.503736	525.132	5.15002e-05	0	1.29	0	84
3.14429	0.0	0.0	0	2.89	0.430967	507.032	4.56334e-05	0	1.29	0	87
3.49182	0.0	0.0	0	2.89	0.430967	507.032	4.56334e-05	0	1.29	0	90
3.83934	0.0	0.0	0	2.89	0.430967	507.032	4.56334e-05	0	1.29	0	93
4.18686	0.0	0.0	0	2.89	0.430967	507.032	4.56334e-05	0	1.29	0	96
4.53438	0.0	0.0	0	2.89	0.430967	507.032	4.56334e-05	0	1.29	0	99
4.8819	0.0	0.0	0	2.89	0.430967	507.032	4.56334e-05	0	1.29	0	102
5.22942	0.0	0.0	0	2.89	0.430967	507.032	4.56334e-05	0	1.29	0	105
5.57694	0.0	0.0	0	2.89	0.430967	507.032	4.56334e-05	0	1.29	0	108
5.92446	0.0	0.0	0	2.89	0.430967	507.032	4.56334e-05	0	1.29	0	111
6.27198	0.0	0.0	0	2.89	0.430967	507.032	4.56334e-05	0	1.29	0	114
6.61951	0.0	0.0	0	2.89	0.430967	507.032	4.56334e-05	0	1.29	0	117
6.96703	0.0	0.0	0	2.89	0.430967	507.032	4.56334e-05	0	1.29	0	120
7.31455	0.0	0.0	0	2.89	0.430967	507.032	4.56334e-05	0	1.29	0	123
7.66207	0.0	0.0	0	2.89	0.430967	507.032	4.56334e-05	0	1.29	0	126
8.00959	0.0	0.0	0	2.89	0.430967	507.032	4.56334e-05	0	1.29	0	129
8.35711	0.0	0.0	0	2.89	0.430967	507.032	4.56334e-05	0	1.29	0	132
8.70463	0.0	0.0	0	2.89	0.430967	507.032	4.56334e-05	0	1.29	0	135
8.82047	0.0	0.0	0	2.89	0.430967	507.032	4.56334e-05	0	1.29	0	136
zone t="MassFlow % = 10" I = 52 J = 1 K = 37 
0.642345	0	0.337913	0.337913	1.49925	4.19105	845.506	0.000266122	3.81576	1.29	0.0553029	0
0.419297	0	0.325752	0.325752	1.27369	5.74378	907.585	0.00033977	0	1.29	0.0553029	3
0.421092	0	0.325243	0.325243	1.26716	5.7938	909.356	0.000342062	0	1.29	0.0553029	6
0.425151	0	0.324821	0.324821	1.26143	5.83792	910.908	0.000344079	0	1.29	0.0553029	9
0.43154	0	0.32447	0.32447	1.25643	5.87656	912.26	0.000345843	0	1.29	0.0553029	12
0.440337	0	0.324192	0.324192	1.25223	5.90921	913.397	0.000347332	0	1.29	0.0553029	15
0.451626	0	0.324012	0.324012	1.24936	5.93151	914.17	0.000348347	0	1.29	0.0553029	18
0.465393	0	0.323939	0.323939	1.25413	5.8944	912.882	0.000346657	0.0614559	1.29	0.0553029	21
0.481315	0	0.324019	0.324019	1.26392	5.81868	910.232	0.0003432	0.228657	1.29	0.0553029	24
0.49939	0	0.324259	0.324259	1.27521	5.73213	907.171	0.000339236	0.421905	1.29	0.0553029	27
0.519707	0	0.324654	0.324654	1.28811	5.63428	903.666	0.000334738	0.641902	1.29	0.0553029	30
0.542379	0	0.325206	0.325206	1.30274	5.52452	899.678	0.000329672	0.889183	1.29	0.0553029	33
0.567541	0	0.325927	0.325927	1.3196	5.3999	895.075	0.000323892	1.15471	1.29	0.0553029	36
0.595383	0	0.326821	0.326821	1.33834	5.26353	889.943	0.000317533	1.45404	1.29	0.0553029	39
0.626142	0	0.327887	0.327887	1.35945	5.11272	884.147	0.000310458	1.7795	1.29	0.0553029	42
0.660124	0	0.32912	0.32912	1.38326	4.94632	877.594	0.000302596	2.12934	1.29	0.0553029	45
0.697576	0	0.330636	0.330636	1.41006	4.76358	870.199	0.000293893	2.50206	1.29	0.0553029	48
0.738766	0	0.332585	0.332585	1.43981	4.56654	861.974	0.000284425	2.90851	1.29	0.0553029	51
0.784105	0	0.335057	0.335057	1.47324	4.35237	852.716	0.000274029	3.33571	1.29	0.0553029	54
0.83407	0	0.338173	0.338173	1.51049	4.12278	842.39	0.000262755	3.79111	1.29	0.0553029	57
0.889236	0	0.342071	0.342071	1.55179	3.87926	830.939	0.000250642	4.28036	1.29	0.0553029	60
0.950309	0	0.346915	0.346915	1.59806	3.62011	818.124	0.000237562	4.7887	1.29	0.0553029	63
1.01812	0	0.352913	0.352913	1.6499	3.34663	803.803	0.000223528	5.31338	1.29	0.0553029	66
1.09376	0	0.360291	0.360291	1.70976	3.05234	787.342	0.000208135	5.79227	1.29	0.0553029	69
1.17845	0	0.369387	0.369387	1.77148	2.77215	770.482	0.000193165	6.45039	1.29	0.0553029	72
1.27355	0	0.380791	0.380791	1.83808	2.49508	752.457	0.000178023	7.22245	1.29	0.0553029	75
1.38085	0	0.395141	0.395141	1.91428	2.20832	732.085	0.000161947	7.98531	1.29	0.0553029	78
1.50305	0	0.413012	0.413012	2.00565	1.90385	708.072	0.000144354	8.5907	1.29	0.0553029	81
1.64452	0	0.434732	0.434732	2.11755	1.58381	679.367	0.000125159	8.91143	1.29	0.0553029	84
1.78865	0	0.457783	0.457783	2.21677	1.34287	654.628	0.000110131	9.14847	1.29	0.0553029	87
2.0208	0	0.494163	0.494163	2.33365	1.10393	626.42	9.46115e-05	8.58746	1.29	0.0553029	90
2.27989	0	0.531163	0.531163	2.43755	0.926556	602.232	8.25991e-05	7.64299	1.29	0.0553029	93
2.55601	0	0.565532	0.565532	2.52897	0.793808	581.66	7.32688e-05	6.53173	1.29	0.0553029	96
2.84593	0	0.595663	0.595663	2.60934	0.692832	564.134	6.59342e-05	5.36547	1.29	0.0553029	99
3.14766	0	0.620899	0.620899	2.67968	0.615014	549.225	6.01174e-05	4.21232	1.29	0.0553029	102
3.4603	0	0.640835	0.640835	2.74073	0.554628	536.611	5.54889e-05	3.11496	1.29	0.0553029	105
3.78265	0	0.655558	0.655558	2.79274	0.507895	526.102	5.18295e-05	2.10812	1.29	0.0553029	108
4.11458	0	0.664939	0.664939	2.83558	0.472459	517.612	4.90031e-05	1.22248	1.29	0.0553029	111
4.45361	0	0.670039	0.670039	2.8685	0.446898	511.184	4.69355e-05	0.500457	1.29	0.0553029	114
4.79858	0	0.671554	0.671554	2.88883	0.431818	507.257	4.57032e-05	0.0281597	1.29	0.0553029	117
5.14623	0	0.671514	0.671514	2.89	0.430967	507.032	4.56334e-05	0	1.29	0.0553029	120
5.49375	0	0.671514	0.671514	2.89	0.430967	507.032	4.56334e-05	0	1.29	0.0553029	123
5.84128	0	0.671514	0.671514	2.89	0.430967	507.032	4.56334e-05	0	1.29	0.0553029	126
6.1888	0	0.671514	0.671514	2.89	0.430967	507.032	4.56334e-05	0	1.29	0.0553029	129
6.53632	0	0.671514	0.671514	2.89	0.430967	507.032	4.56334e-05	0	1.29	0.0553029	132
6.88384	0	0.671514	0.671514	2.89	0.430967	507.032	4.56334e-05	0	1.29	0.0553029	135
7.23136	0	0.671514	0.671514	2.89	0.430967	507.032	4.56334e-05	0	1.29	0.0553029	138
7.57888	0	0.671514	0.671514	2.89	0.430967	507.032	4.56334e-05	0	1.29	0.0553029	141
7.9264	0	0.671514	0.671514	2.89	0.430967	507.032	4.56334e-05	0	1.29	0.0553029	144
8.27392	0	0.671514	0.671514	2.89	0.430967	507.032	4.56334e-05	0	1.29	0.0553029	147
8.62144	0	0.671514	0.671514	2.89	0.430967	507.032	4.56334e-05	0	1.29	0.0553029	150
8.82047	0	0.67132	0.67132	2.89	0.430967	507.032	4.56334e-05	0	1.29	0.0553029	187
0.642345	0.0586779	0.332779	0.337913	1.49925	4.19105	845.506	0.000266122	3.81576	1.29	0.0553029	0
0.419297	0.0565663	0.320803	0.325752	1.27369	5.74378	907.585	0.00033977	0	1.29	0.0553029	3
0.421092	0.0564778	0.320302	0.325243	1.26716	5.7938	909.356	0.000342062	0	1.29	0.0553029	6
0.425151	0.0564046	0.319887	0.324821	1.26143	5.83792	910.908	0.000344079	0	1.29	0.0553029	9
0.43154	0.0563437	0.319541	0.32447	1.25643	5.87656	912.26	0.000345843	0	1.29	0.0553029	12
0.440337	0.0562953	0.319267	0.324192	1.25223	5.90921	913.397	0.000347332	0	1.29	0.0553029	15
0.451626	0.056264	0.319089	0.324012	1.24936	5.93151	914.17	0.000348347	0	1.29	0.0553029	18
0.465393	0.0562514	0.319018	0.323939	1.25413	5.8944	912.882	0.000346657	0.0614559	1.29	0.0553029	21
0.481315	0.0562652	0.319096	0.324019	1.26392	5.81868	910.232	0.0003432	0.228657	1.29	0.0553029	24
0.49939	0.056307	0.319333	0.324259	1.27521	5.73213	907.171	0.000339236	0.421905	1.29	0.0553029	27
0.519707	0.0563757	0.319722	0.324654	1.28811	5.63428	903.666	0.000334738	0.641902	1.29	0.0553029	30
0.542379	0.0564714	0.320265	0.325206	1.30274	5.52452	899.678	0.000329672	0.889183	1.29	0.0553029	33
0.567541	0.0565967	0.320976	0.325927	1.3196	5.3999	895.075	0.000323892	1.15471	1.29	0.0553029	36
0.595383	0.0567519	0.321856	0.326821	1.33834	5.26353	889.943	0.000317533	1.45404	1.29	0.0553029	39
0.626142	0.056937	0.322906	0.327887	1.35945	5.11272	884.147	0.000310458	1.7795	1.29	0.0553029	42
0.660124	0.0571511	0.32412	0.32912	1.38326	4.94632	877.594	0.000302596	2.12934	1.29	0.0553029	45
0.697576	0.0574143	0.325613	0.330636	1.41006	4.76358	870.199	0.000293893	2.50206	1.29	0.0553029	48
0.738766	0.0577528	0.327532	0.332585	1.43981	4.56654	861.974	0.000284425	2.90851	1.29	0.0553029	51
0.784105	0.0581821	0.329967	0.335057	1.47324	4.35237	852.716	0.000274029	3.33571	1.29	0.0553029	54
0.83407	0.0587231	0.333035	0.338173	1.51049	4.12278	842.39	0.000262755	3.79111	1.29	0.0553029	57
0.889236	0.0594	0.336874	0.342071	1.55179	3.87926	830.939	0.000250642	4.28036	1.29	0.0553029	60
0.950309	0.0602411	0.341644	0.346915	1.59806	3.62011	818.124	0.000237562	4.7887	1.29	0.0553029	63
1.01812	0.0612827	0.347552	0.352913	1.6499	3.34663	803.803	0.000223528	5.31338	1.29	0.0553029	66
1.09376	0.062564	0.354818	0.360291	1.70976	3.05234	787.342	0.000208135	5.79227	1.29	0.0553029	69
1.17845	0.0641433	0.363775	0.369387	1.77148	2.77215	770.482	0.000193165	6.45039	1.29	0.0553029	72
1.27355	0.0661237	0.375006	0.380791	1.83808	2.49508	752.457	0.000178023	7.22245	1.29	0.0553029	75
1.38085	0.0686155	0.389138	0.395141	1.91428	2.20832	732.085	0.000161947	7.98531	1.29	0.0553029	78
1.50305	0.0717187	0.406737	0.413012	2.00565	1.90385	708.072	0.000144354	8.5907	1.29	0.0553029	81
1.64452	0.0754905	0.428128	0.434732	2.11755	1.58381	679.367	0.000125159	8.91143	1.29	0.0553029	84
1.78865	0.0794932	0.450829	0.457783	2.21677	1.34287	654.628	0.000110131	9.14847	1.29	0.0553029	87
2.0208	0.0858106	0.486656	0.494163	2.33365	1.10393	626.42	9.46115e-05	8.58746	1.29	0.0553029	90
2.27989	0.0922355	0.523094	0.531163	2.43755	0.926556	602.232	8.25991e-05	7.64299	1.29	0.0553029	93
2.55601	0.0982036	0.55694	0.565532	2.52897	0.793808	581.66	7.32688e-05	6.53173	1.29	0.0553029	96
2.84593	0.103436	0.586613	0.595663	2.60934	0.692832	564.134	6.59342e-05	5.36547	1.29	0.0553029	99
3.14766	0.107818	0.611466	0.620899	2.67968	0.615014	549.225	6.01174e-05	4.21232	1.29	0.0553029	102
3.4603	0.11128	0.631099	0.640835	2.74073	0.554628	536.611	5.54889e-05	3.11496	1.29	0.0553029	105
3.78265	0.113836	0.645598	0.655558	2.79274	0.507895	526.102	5.18295e-05	2.10812	1.29	0.0553029	108
4.11458	0.115465	0.654837	0.664939	2.83558	0.472459	517.612	4.90031e-05	1.22248	1.29	0.0553029	111
4.45361	0.116351	0.659859	0.670039	2.8685	0.446898	511.184	4.69355e-05	0.500457	1.29	0.0553029	114
4.79858	0.116614	0.661352	0.671554	2.88883	0.431818	507.257	4.57032e-05	0.0281597	1.29	0.0553029	117
5.14623	0.116607	0.661312	0.671514	2.89	0.430967	507.032	4.56334e-05	0	1.29	0.0553029	120
5.49375	0.116607	0.661312	0.671514	2.89	0.430967	507.032	4.56334e-05	0	1.29	0.0553029	123
5.84128	0.116607	0.661312	0.671514	2.89	0.430967	507.032	4.56334e-05	0	1.29	0.0553029	126
6.1888	0.116607	0.661312	0.671514	2.89	0.430967	507.032	4.56334e-05	0	1.29	0.0553029	129
6.53632	0.116607	0.661312	0.671514	2.89	0.430967	507.032	4.56334e-05	0	1.29	0.0553029	132
6.88384	0.116607	0.661312	0.671514	2.89	0.430967	507.032	4.56334e-05	0	1.29	0.0553029	135
7.23136	0.116607	0.661312	0.671514	2.89	0.430967	507.032	4.56334e-05	0	1.29	0.0553029	138
7.57888	0.116607	0.661312	0.671514	2.89	0.430967	507.032	4.56334e-05	0	1.29	0.0553029	141
7.9264	0.116607	0.661312	0.671514	2.89	0.430967	507.032	4.56334e-05	0	1.29	0.0553029	144
8.27392	0.116607	0.661312	0.671514	2.89	0.430967	507.032	4.56334e-05	0	1.29	0.0553029	147
8.62144	0.116607	0.661312	0.671514	2.89	0.430967	507.032	4.56334e-05	0	1.29	0.0553029	150
8.82047	0.116573	0.661121	0.67132	2.89	0.430967	507.032	4.56334e-05	0	1.29	0.0553029	187
0.642345	0.115573	0.317534	0.337913	1.49925	4.19105	845.506	0.000266122	3.81576	1.29	0.0553029	0
0.419297	0.111414	0.306107	0.325752	1.27369	5.74378	907.585	0.00033977	0	1.29	0.0553029	3
0.421092	0.11124	0.305628	0.325243	1.26716	5.7938	909.356	0.000342062	0	1.29	0.0553029	6
0.425151	0.111095	0.305232	0.324821	1.26143	5.83792	910.908	0.000344079	0	1.29	0.0553029	9
0.43154	0.110975	0.304902	0.32447	1.25643	5.87656	912.26	0.000345843	0	1.29	0.0553029	12
0.440337	0.11088	0.304641	0.324192	1.25223	5.90921	913.397	0.000347332	0	1.29	0.0553029	15
0.451626	0.110818	0.304471	0.324012	1.24936	5.93151	914.17	0.000348347	0	1.29	0.0553029	18
0.465393	0.110794	0.304403	0.323939	1.25413	5.8944	912.882	0.000346657	0.0614559	1.29	0.0553029	21
0.481315	0.110821	0.304478	0.324019	1.26392	5.81868	910.232	0.0003432	0.228657	1.29	0.0553029	24
0.49939	0.110903	0.304704	0.324259	1.27521	5.73213	907.171	0.000339236	0.421905	1.29	0.0553029	27
0.519707	0.111038	0.305075	0.324654	1.28811	5.63428	903.666	0.000334738	0.641902	1.29	0.0553029	30
0.542379	0.111227	0.305593	0.325206	1.30274	5.52452	899.678	0.000329672	0.889183	1.29	0.0553029	33
0.567541	0.111474	0.306272	0.325927	1.3196	5.3999	895.075	0.000323892	1.15471	1.29	0.0553029	36
0.595383	0.111779	0.307111	0.326821	1.33834	5.26353	889.943	0.000317533	1.45404	1.29	0.0553029	39
0.626142	0.112144	0.308113	0.327887	1.35945	5.11272	884.147	0.000310458	1.7795	1.29	0.0553029	42
0.660124	0.112566	0.309272	0.32912	1.38326	4.94632	877.594	0.000302596	2.12934	1.29	0.0553029	45
0.697576	0.113084	0.310696	0.330636	1.41006	4.76358	870.199	0.000293893	2.50206	1.29	0.0553029	48
0.738766	0.113751	0.312528	0.332585	1.43981	4.56654	861.974	0.000284425	2.90851	1.29	0.0553029	51
0.784105	0.114596	0.314851	0.335057	1.47324	4.35237	852.716	0.000274029	3.33571	1.29	0.0553029	54
0.83407	0.115662	0.317778	0.338173	1.51049	4.12278	842.39	0.000262755	3.79111	1.29	0.0553029	57
0.889236	0.116995	0.321442	0.342071	1.55179	3.87926	830.939	0.000250642	4.28036	1.29	0.0553029	60
0.950309	0.118652	0.325993	0.346915	1.59806	3.62011	818.124	0.000237562	4.7887	1.29	0.0553029	63
1.01812	0.120703	0.33163	0.352913	1.6499	3.34663	803.803	0.000223528	5.31338	1.29	0.0553029	66
1.09376	0.123227	0.338563	0.360291	1.70976	3.05234	787.342	0.000208135	5.79227	1.29	0.0553029	69
1.17845	0.126338	0.34711	0.369387	1.77148	2.77215	770.482	0.000193165	6.45039	1.29	0.0553029	72
1.27355	0.130238	0.357827	0.380791	1.83808	2.49508	752.457	0.000178023	7.22245	1.29	0.0553029	75
1.38085	0.135146	0.371311	0.395141	1.91428	2.20832	732.085	0.000161947	7.98531	1.29	0.0553029	78
1.50305	0.141258	0.388104	0.413012	2.00565	1.90385	708.072	0.000144354	8.5907	1.29	0.0553029	81
1.64452	0.148687	0.408515	0.434732	2.11755	1.58381	679.367	0.000125159	8.91143	1.29	0.0553029	84
1.78865	0.156571	0.430176	0.457783	2.21677	1.34287	654.628	0.000110131	9.14847	1.29	0.0553029	87
2.0208	0.169014	0.464362	0.494163	2.33365	1.10393	626.42	9.46115e-05	8.58746	1.29	0.0553029	90
2.27989	0.181668	0.49913	0.531163	2.43755	0.926556	602.232	8.25991e-05	7.64299	1.29	0.0553029	93
2.55601	0.193423	0.531426	0.565532	2.52897	0.793808	581.66	7.32688e-05	6.53173	1.29	0.0553029	96
2.84593	0.203729	0.55974	0.595663	2.60934	0.692832	564.134	6.59342e-05	5.36547	1.29	0.0553029	99
3.14766	0.21236	0.583454	0.620899	2.67968	0.615014	549.225	6.01174e-05	4.21232	1.29	0.0553029	102
3.4603	0.219178	0.602188	0.640835	2.74073	0.554628	536.611	5.54889e-05	3.11496	1.29	0.0553029	105
3.78265	0.224214	0.616023	0.655558	2.79274	0.507895	526.102	5.18295e-05	2.10812	1.29	0.0553029	108
4.11458	0.227422	0.624838	0.664939	2.83558	0.472459	517.612	4.90031e-05	1.22248	1.29	0.0553029	111
4.45361	0.229167	0.62963	0.670039	2.8685	0.446898	511.184	4.69355e-05	0.500457	1.29	0.0553029	114
4.79858	0.229685	0.631055	0.671554	2.88883	0.431818	507.257	4.57032e-05	0.0281597	1.29	0.0553029	117
5.14623	0.229671	0.631017	0.671514	2.89	0.430967	507.032	4.56334e-05	0	1.29	0.0553029	120
5.49375	0.229671	0.631017	0.671514	2.89	0.430967	507.032	4.56334e-05	0	1.29	0.0553029	123
5.84128	0.229671	0.631017	0.671514	2.89	0.430967	507.032	4.56334e-05	0	1.29	0.0553029	126
6.1888	0.229671	0.631017	0.671514	2.89	0.430967	507.032	4.56334e-05	0	1.29	0.0553029	129
6.53632	0.229671	0.631017	0.671514	2.89	0.430967	507.032	4.56334e-05	0	1.29	0.0553029	132
6.88384	0.229671	0.631017	0.671514	2.89	0.430967	507.032	4.56334e-05	0	1.29	0.0553029	135
7.23136	0.229671	0.631017	0.671514	2.89	0.430967	507.032	4.56334e-05	0	1.29	0.0553029	138
7.57888	0.229671	0.631017	0.671514	2.89	0.430967	507.032	4.56334e-05	0	1.29	0.0553029	141
7.9264	0.229671	0.631017	0.671514	2.89	0.430967	507.032	4.56334e-05	0	1.29	0.0553029	144
8.27392	0.229671	0.631017	0.671514	2.89	0.430967	507.032	4.56334e-05	0	1.29	0.0553029	147
8.62144	0.229671	0.631017	0.671514	2.89	0.430967	507.032	4.56334e-05	0	1.29	0.0553029	150
8.82047	0.229605	0.630834	0.67132	2.89	0.430967	507.032	4.56334e-05	0	1.29	0.0553029	187
0.642345	0.168956	0.292641	0.337913	1.49925	4.19105	845.506	0.000266122	3.81576	1.29	0.0553029	0
0.419297	0.162876	0.28211	0.325752	1.27369	5.74378	907.585	0.00033977	0	1.29	0.0553029	3
0.421092	0.162621	0.281669	0.325243	1.26716	5.7938	909.356	0.000342062	0	1.29	0.0553029	6
0.425151	0.162411	0.281304	0.324821	1.26143	5.83792	910.908	0.000344079	0	1.29	0.0553029	9
0.43154	0.162235	0.280999	0.32447	1.25643	5.87656	912.26	0.000345843	0	1.29	0.0553029	12
0.440337	0.162096	0.280758	0.324192	1.25223	5.90921	913.397	0.000347332	0	1.29	0.0553029	15
0.451626	0.162006	0.280602	0.324012	1.24936	5.93151	914.17	0.000348347	0	1.29	0.0553029	18
0.465393	0.161969	0.280539	0.323939	1.25413	5.8944	912.882	0.000346657	0.0614559	1.29	0.0553029	21
0.481315	0.162009	0.280608	0.324019	1.26392	5.81868	910.232	0.0003432	0.228657	1.29	0.0553029	24
0.49939	0.16213	0.280817	0.324259	1.27521	5.73213	907.171	0.000339236	0.421905	1.29	0.0553029	27
0.519707	0.162327	0.281159	0.324654	1.28811	5.63428	903.666	0.000334738	0.641902	1.29	0.0553029	30
0.542379	0.162603	0.281636	0.325206	1.30274	5.52452	899.678	0.000329672	0.889183	1.29	0.0553029	33
0.567541	0.162964	0.282261	0.325927	1.3196	5.3999	895.075	0.000323892	1.15471	1.29	0.0553029	36
0.595383	0.16341	0.283035	0.326821	1.33834	5.26353	889.943	0.000317533	1.45404	1.29	0.0553029	39
0.626142	0.163944	0.283959	0.327887	1.35945	5.11272	884.147	0.000310458	1.7795	1.29	0.0553029	42
0.660124	0.16456	0.285027	0.32912	1.38326	4.94632	877.594	0.000302596	2.12934	1.29	0.0553029	45
0.697576	0.165318	0.286339	0.330636	1.41006	4.76358	870.199	0.000293893	2.50206	1.29	0.0553029	48
0.738766	0.166292	0.288027	0.332585	1.43981	4.56654	861.974	0.000284425	2.90851	1.29	0.0553029	51
0.784105	0.167529	0.290168	0.335057	1.47324	4.35237	852.716	0.000274029	3.33571	1.29	0.0553029	54
0.83407	0.169086	0.292866	0.338173	1.51049	4.12278	842.39	0.000262755	3.79111	1.29	0.0553029	57
0.889236	0.171036	0.296242	0.342071	1.55179	3.87926	830.939	0.000250642	4.28036	1.29	0.0553029	60
0.950309	0.173457	0.300437	0.346915	1.59806	3.62011	818.124	0.000237562	4.7887	1.29	0.0553029	63
1.01812	0.176457	0.305632	0.352913	1.6499	3.34663	803.803	0.000223528	5.31338	1.29	0.0553029	66
1.09376	0.180146	0.312022	0.360291	1.70976	3.05234	787.342	0.000208135	5.79227	1.29	0.0553029	69
1.17845	0.184693	0.319898	0.369387	1.77148	2.77215	770.482	0.000193165	6.45039	1.29	0.0553029	72
1.27355	0.190396	0.329775	0.380791	1.83808	2.49508	752.457	0.000178023	7.22245	1.29	0.0553029	75
1.38085	0.19757	0.342202	0.395141	1.91428	2.20832	732.085	0.000161947	7.98531	1.29	0.0553029	78
1.50305	0.206506	0.357678	0.413012	2.00565	1.90385	708.072	0.000144354	8.5907	1.29	0.0553029	81
1.64452	0.217366	0.376489	0.434732	2.11755	1.58381	679.367	0.000125159	8.91143	1.29	0.0553029	84
1.78865	0.228892	0.396452	0.457783	2.21677	1.34287	654.628	0.000110131	9.14847	1.29	0.0553029	87
2.0208	0.247082	0.427958	0.494163	2.33365	1.10393	626.42	9.46115e-05	8.58746	1.29	0.0553029	90
2.27989	0.265582	0.460001	0.531163	2.43755	0.926556	602.232	8.25991e-05	7.64299	1.29	0.0553029	93
2.55601	0.282766	0.489765	0.565532	2.52897	0.793808	581.66	7.32688e-05	6.53173	1.29	0.0553029	96
2.84593	0.297831	0.515859	0.595663	2.60934	0.692832	564.134	6.59342e-05	5.36547	1.29	0.0553029	99
3.14766	0.310449	0.537714	0.620899	2.67968	0.615014	549.225	6.01174e-05	4.21232	1.29	0.0553029	102
3.4603	0.320417	0.554979	0.640835	2.74073	0.554628	536.611	5.54889e-05	3.11496	1.29	0.0553029	105
3.78265	0.327779	0.56773	0.655558	2.79274	0.507895	526.102	5.18295e-05	2.10812	1.29	0.0553029	108
4.11458	0.332469	0.575854	0.664939	2.83558	0.472459	517.612	4.90031e-05	1.22248	1.29	0.0553029	111
4.45361	0.335019	0.580271	0.670039	2.8685	0.446898	511.184	4.69355e-05	0.500457	1.29	0.0553029	114
4.79858	0.335777	0.581583	0.671554	2.88883	0.431818	507.257	4.57032e-05	0.0281597	1.29	0.0553029	117
5.14623	0.335757	0.581548	0.671514	2.89	0.430967	507.032	4.56334e-05	0	1.29	0.0553029	120
5.49375	0.335757	0.581548	0.671514	2.89	0.430967	507.032	4.56334e-05	0	1.29	0.0553029	123
5.84128	0.335757	0.581548	0.671514	2.89	0.430967	507.032	4.56334e-05	0	1.29	0.0553029	126
6.1888	0.335757	0.581548	0.671514	2.89	0.430967	507.032	4.56334e-05	0	1.29	0.0553029	129
6.53632	0.335757	0.581548	0.671514	2.89	0.430967	507.032	4.56334e-05	0	1.29	0.0553029	132
6.88384	0.335757	0.581548	0.671514	2.89	0.430967	507.032	4.56334e-05	0	1.29	0.0553029	135
7.23136	0.335757	0.581548	0.671514	2.89	0.430967	507.032	4.56334e-05	0	1.29	0.0553029	138
7.57888	0.335757	0.581548	0.671514	2.89	0.430967	507.032	4.56334e-05	0	1.29	0.0553029	141
7.9264	0.335757	0.581548	0.671514	2.89	0.430967	507.032	4.56334e-05	0	1.29	0.0553029	144
8.27392	0.335757	0.581548	0.671514	2.89	0.430967	507.032	4.56334e-05	0	1.29	0.0553029	147
8.62144	0.335757	0.581548	0.671514	2.89	0.430967	507.032	4.56334e-05	0	1.29	0.0553029	150
8.82047	0.33566	0.58138	0.67132	2.89	0.430967	507.032	4.56334e-05	0	1.29	0.0553029	187
0.642345	0.217206	0.258856	0.337913	1.49925	4.19105	845.506	0.000266122	3.81576	1.29	0.0553029	0
0.419297	0.209389	0.249541	0.325752	1.27369	5.74378	907.585	0.00033977	0	1.29	0.0553029	3
0.421092	0.209062	0.24915	0.325243	1.26716	5.7938	909.356	0.000342062	0	1.29	0.0553029	6
0.425151	0.208791	0.248828	0.324821	1.26143	5.83792	910.908	0.000344079	0	1.29	0.0553029	9
0.43154	0.208565	0.248559	0.32447	1.25643	5.87656	912.26	0.000345843	0	1.29	0.0553029	12
0.440337	0.208387	0.248345	0.324192	1.25223	5.90921	913.397	0.000347332	0	1.29	0.0553029	15
0.451626	0.208271	0.248207	0.324012	1.24936	5.93151	914.17	0.000348347	0	1.29	0.0553029	18
0.465393	0.208224	0.248152	0.323939	1.25413	5.8944	912.882	0.000346657	0.0614559	1.29	0.0553029	21
0.481315	0.208275	0.248213	0.324019	1.26392	5.81868	910.232	0.0003432	0.228657	1.29	0.0553029	24
0.49939	0.20843	0.248397	0.324259	1.27521	5.73213	907.171	0.000339236	0.421905	1.29	0.0553029	27
0.519707	0.208684	0.2487	0.324654	1.28811	5.63428	903.666	0.000334738	0.641902	1.29	0.0553029	30
0.542379	0.209038	0.249122	0.325206	1.30274	5.52452	899.678	0.000329672	0.889183	1.29	0.0553029	33
0.567541	0.209502	0.249675	0.325927	1.3196	5.3999	895.075	0.000323892	1.15471	1.29	0.0553029	36
0.595383	0.210076	0.250359	0.326821	1.33834	5.26353	889.943	0.000317533	1.45404	1.29	0.0553029	39
0.626142	0.210762	0.251176	0.327887	1.35945	5.11272	884.147	0.000310458	1.7795	1.29	0.0553029	42
0.660124	0.211554	0.252121	0.32912	1.38326	4.94632	877.594	0.000302596	2.12934	1.29	0.0553029	45
0.697576	0.212529	0.253282	0.330636	1.41006	4.76358	870.199	0.000293893	2.50206	1.29	0.0553029	48
0.738766	0.213781	0.254775	0.332585	1.43981	4.56654	861.974	0.000284425	2.90851	1.29	0.0553029	51
0.784105	0.215371	0.256669	0.335057	1.47324	4.35237	852.716	0.000274029	3.33571	1.29	0.0553029	54
0.83407	0.217373	0.259055	0.338173	1.51049	4.12278	842.39	0.000262755	3.79111	1.29	0.0553029	57
0.889236	0.219879	0.262042	0.342071	1.55179	3.87926	830.939	0.000250642	4.28036	1.29	0.0553029	60
0.950309	0.222993	0.265752	0.346915	1.59806	3.62011	818.124	0.000237562	4.7887	1.29	0.0553029	63
1.01812	0.226848	0.270347	0.352913	1.6499	3.34663	803.803	0.000223528	5.31338	1.29	0.0553029	66
1.09376	0.231591	0.275999	0.360291	1.70976	3.05234	787.342	0.000208135	5.79227	1.29	0.0553029	69
1.17845	0.237437	0.282967	0.369387	1.77148	2.77215	770.482	0.000193165	6.45039	1.29	0.0553029	72
1.27355	0.244768	0.291703	0.380791	1.83808	2.49508	752.457	0.000178023	7.22245	1.29	0.0553029	75
1.38085	0.253992	0.302695	0.395141	1.91428	2.20832	732.085	0.000161947	7.98531	1.29	0.0553029	78
1.50305	0.265479	0.316385	0.413012	2.00565	1.90385	708.072	0.000144354	8.5907	1.29	0.0553029	81
1.64452	0.279441	0.333024	0.434732	2.11755	1.58381	679.367	0.000125159	8.91143	1.29	0.0553029	84
1.78865	0.294257	0.350682	0.457783	2.21677	1.34287	654.628	0.000110131	9.14847	1.29	0.0553029	87
2.0208	0.317642	0.378551	0.494163	2.33365	1.10393	626.42	9.46115e-05	8.58746	1.29	0.0553029	90
2.27989	0.341425	0.406895	0.531163	2.43755	0.926556	602.232	8.25991e-05	7.64299	1.29	0.0553029	93
2.55601	0.363517	0.433223	0.565532	2.52897	0.793808	581.66	7.32688e-05	6.53173	1.29	0.0553029	96
2.84593	0.382885	0.456304	0.595663	2.60934	0.692832	564.134	6.59342e-05	5.36547	1.29	0.0553029	99
3.14766	0.399106	0.475636	0.620899	2.67968	0.615014	549.225	6.01174e-05	4.21232	1.29	0.0553029	102
3.4603	0.411921	0.490908	0.640835	2.74073	0.554628	536.611	5.54889e-05	3.11496	1.29	0.0553029	105
3.78265	0.421384	0.502186	0.655558	2.79274	0.507895	526.102	5.18295e-05	2.10812	1.29	0.0553029	108
4.11458	0.427414	0.509372	0.664939	2.83558	0.472459	517.612	4.90031e-05	1.22248	1.29	0.0553029	111
4.45361	0.430693	0.513279	0.670039	2.8685	0.446898	511.184	4.69355e-05	0.500457	1.29	0.0553029	114
4.79858	0.431667	0.51444	0.671554	2.88883	0.431818	507.257	4.57032e-05	0.0281597	1.29	0.0553029	117
5.14623	0.431641	0.514409	0.671514	2.89	0.430967	507.032	4.56334e-05	0	1.29	0.0553029	120
5.49375	0.431641	0.514409	0.671514	2.89	0.430967	507.032	4.56334e-05	0	1.29	0.0553029	123
5.84128	0.431641	0.514409	0.671514	2.89	0.430967	507.032	4.56334e-05	0	1.29	0.0553029	126
6.1888	0.431641	0.514409	0.671514	2.89	0.430967	507.032	4.56334e-05	0	1.29	0.0553029	129
6.53632	0.431641	0.514409	0.671514	2.89	0.430967	507.032	4.56334e-05	0	1.29	0.0553029	132
6.88384	0.431641	0.514409	0.671514	2.89	0.430967	507.032	4.56334e-05	0	1.29	0.0553029	135
7.23136	0.431641	0.514409	0.671514	2.89	0.430967	507.032	4.56334e-05	0	1.29	0.0553029	138
7.57888	0.431641	0.514409	0.671514	2.89	0.430967	507.032	4.56334e-05	0	1.29	0.0553029	141
7.9264	0.431641	0.514409	0.671514	2.89	0.430967	507.032	4.56334e-05	0	1.29	0.0553029	144
8.27392	0.431641	0.514409	0.671514	2.89	0.430967	507.032	4.56334e-05	0	1.29	0.0553029	147
8.62144	0.431641	0.514409	0.671514	2.89	0.430967	507.032	4.56334e-05	0	1.29	0.0553029	150
8.82047	0.431516	0.514261	0.67132	2.89	0.430967	507.032	4.56334e-05	0	1.29	0.0553029	187
0.642345	0.258856	0.217206	0.337913	1.49925	4.19105	845.506	0.000266122	3.81576	1.29	0.0553029	0
0.419297	0.249541	0.209389	0.325752	1.27369	5.74378	907.585	0.00033977	0	1.29	0.0553029	3
0.421092	0.24915	0.209062	0.325243	1.26716	5.7938	909.356	0.000342062	0	1.29	0.0553029	6
0.425151	0.248828	0.208791	0.324821	1.26143	5.83792	910.908	0.000344079	0	1.29	0.0553029	9
0.43154	0.248559	0.208565	0.32447	1.25643	5.87656	912.26	0.000345843	0	1.29	0.0553029	12
0.440337	0.248345	0.208387	0.324192	1.25223	5.90921	913.397	0.000347332	0	1.29	0.0553029	15
0.451626	0.248207	0.208271	0.324012	1.24936	5.93151	914.17	0.000348347	0	1.29	0.0553029	18
0.465393	0.248152	0.208224	0.323939	1.25413	5.8944	912.882	0.000346657	0.0614559	1.29	0.0553029	21
0.481315	0.248213	0.208275	0.324019	1.26392	5.81868	910.232	0.0003432	0.228657	1.29	0.0553029	24
0.49939	0.248397	0.20843	0.324259	1.27521	5.73213	907.171	0.000339236	0.421905	1.29	0.0553029	27
0.519707	0.2487	0.208684	0.324654	1.28811	5.63428	903.666	0.000334738	0.641902	1.29	0.0553029	30
0.542379	0.249122	0.209038	0.325206	1.30274	5.52452	899.678	0.000329672	0.889183	1.29	0.0553029	33
0.567541	0.249675	0.209502	0.325927	1.3196	5.3999	895.075	0.000323892	1.15471	1.29	0.0553029	36
0.595383	0.250359	0.210076	0.326821	1.33834	5.26353	889.943	0.000317533	1.45404	1.29	0.0553029	39
0.626142	0.251176	0.210762	0.327887	1.35945	5.11272	884.147	0.000310458	1.7795	1.29	0.0553029	42
0.660124	0.252121	0.211554	0.32912	1.38326	4.94632	877.594	0.000302596	2.12934	1.29	0.0553029	45
0.697576	0.253282	0.212529	0.330636	1.41006	4.76358	870.199	0.000293893	2.50206	1.29	0.0553029	48
0.738766	0.254775	0.213781	0.332585	1.43981	4.56654	861.974	0.000284425	2.90851	1.29	0.0553029	51
0.784105	0.256669	0.215371	0.335057	1.47324	4.35237	852.716	0.000274029	3.33571	1.29	0.0553029	54
0.83407	0.259055	0.217373	0.338173	1.51049	4.12278	842.39	0.000262755	3.79111	1.29	0.0553029	57
0.889236	0.262042	0.219879	0.342071	1.55179	3.87926	830.939	0.000250642	4.28036	1.29	0.0553029	60