VARIABLES = "X/R","R/R","Mach","Pres","Temp","Rho","Theta", "Gamma"
TITLE = "Primary MOC Contour Data file"
text  x=5  y=92  t="MOC Grid Development Contours"
zone t="Wall contour"
0	1	1.17779	424.432	414.892	0.0858224	0	1.4
0.000230286	1	1.17789	424.382	414.878	0.0858152	0.0131944	1.4
0.000920735	1	1.17816	424.229	414.836	0.085793	0.0527543	1.4
0.00207073	1	1.17865	423.962	414.761	0.0857545	0.118644	1.4
0.00367965	1.00001	1.17938	423.565	414.65	0.085697	0.210829	1.4
0.00574714	1.00002	1.18039	423.013	414.495	0.0856172	0.329289	1.4
0.00827332	1.00003	1.18174	422.276	414.289	0.0855107	0.474031	1.4
0.0112592	1.00006	1.18349	421.319	414.021	0.0853722	0.645118	1.4
0.0147071	1.00011	1.18573	420.099	413.678	0.0851955	0.842684	1.4
0.0186211	1.00017	1.18855	418.567	413.246	0.0849736	1.06697	1.4
0.0230076	1.00026	1.19204	416.672	412.711	0.0846986	1.31835	1.4
0.027876	1.00039	1.19633	414.357	412.054	0.0843621	1.59738	1.4
0.0332391	1.00055	1.20152	411.56	411.258	0.083955	1.90481	1.4
0.0391138	1.00077	1.20775	408.22	410.301	0.0834678	2.24162	1.4
0.0455216	1.00104	1.21516	404.273	409.164	0.0828905	2.6091	1.4
0.0524892	1.00138	1.22389	399.656	407.823	0.0822133	3.00879	1.4
0.0600488	1.0018	1.23409	394.308	406.257	0.081426	3.44261	1.4
0.0682387	1.00233	1.2459	388.171	404.44	0.0805187	3.91283	1.4
0.0725912	1.00264	1.25257	384.734	403.414	0.0800089	4.16283	1.4
0.0771036	1.00298	1.2595	381.191	402.349	0.0794819	4.4221	1.4
0.0814532	1.00332	1.26654	377.608	401.264	0.0789475	4.6721	1.4
0.0866942	1.00377	1.27503	373.32	399.957	0.0783061	4.97346	1.4
0.0910403	1.00415	1.28243	369.613	398.818	0.0777499	5.22346	1.4
0.097068	1.00472	1.29269	364.516	397.239	0.0769825	5.57036	1.4
0.10141	1.00516	1.30041	360.712	396.05	0.0764078	5.82036	1.4
0.108289	1.00588	1.31265	354.744	394.167	0.0755027	6.2167	1.4
0.112626	1.00636	1.32067	350.87	392.932	0.0749128	6.4667	1.4
0.120429	1.00728	1.3351	343.979	390.712	0.073859	6.91684	1.4
0.124759	1.00781	1.3434	340.063	389.436	0.0732574	7.16684	1.4
0.129087	1.00837	1.35169	336.184	388.161	0.0726594	7.41684	1.4
0.133564	1.00896	1.36027	332.205	386.843	0.0720442	7.67561	1.4
0.137887	1.00955	1.36881	328.276	385.53	0.0714345	7.92561	1.4
0.142208	1.01016	1.37736	324.385	384.219	0.0708286	8.17561	1.4
0.14778	1.01098	1.38838	319.416	382.528	0.0700521	8.49832	1.4
0.152094	1.01163	1.39715	315.502	381.183	0.0694378	8.74832	1.4
0.156406	1.01231	1.40593	311.627	379.839	0.0688275	8.99832	1.4
0.163168	1.0134	1.4197	305.619	377.733	0.0678772	9.39083	1.4
0.167471	1.01412	1.42868	301.748	376.359	0.0672619	9.64083	1.4
0.171771	1.01486	1.43767	297.916	374.988	0.0666507	9.89083	1.4
0.179825	1.0163	1.45452	290.836	372.419	0.0655153	10.3596	1.4
0.184116	1.0171	1.46371	287.034	371.022	0.0649025	10.6096	1.4
0.188403	1.01791	1.47289	283.272	369.626	0.0642937	10.8596	1.4
0.192686	1.01874	1.48208	279.549	368.232	0.063689	11.1096	1.4
0.197856	1.01977	1.49319	275.102	366.548	0.0629637	11.4116	1.4
0.202131	1.02064	1.50256	271.396	365.131	0.0623567	11.6616	1.4
0.206403	1.02153	1.51193	267.73	363.714	0.0617537	11.9116	1.4
0.21067	1.02244	1.52131	264.102	362.299	0.0611549	12.1616	1.4
0.217373	1.02391	1.53608	258.475	360.077	0.0602213	12.5548	1.4
0.221629	1.02487	1.54563	254.889	358.642	0.0596233	12.8048	1.4
0.225882	1.02585	1.55519	251.342	357.209	0.0590295	13.0548	1.4
0.230131	1.02684	1.56476	247.833	355.778	0.0584398	13.3048	1.4
0.238493	1.02886	1.58366	241.027	352.958	0.0572889	13.7976	1.4
0.242728	1.02991	1.59339	237.585	351.511	0.0567033	14.0476	1.4
0.246959	1.03097	1.60313	234.181	350.064	0.0561218	14.2976	1.4
0.251185	1.03206	1.61289	230.815	348.619	0.0555444	14.5476	1.4
0.255406	1.03317	1.62266	227.486	347.175	0.054971	14.7976	1.4
0.261346	1.03475	1.63646	222.858	345.142	0.0541698	15.1499	1.4
0.265555	1.0359	1.64638	219.581	343.685	0.0535997	15.3999	1.4
0.269759	1.03707	1.65631	216.342	342.228	0.0530337	15.6499	1.4
0.273958	1.03826	1.66626	213.139	340.773	0.0524718	15.8999	1.4
0.278152	1.03946	1.67623	209.973	339.319	0.0519139	16.1499	1.4
0.286069	1.04179	1.69514	204.085	336.573	0.0508697	16.6227	1.4
0.290247	1.04305	1.70525	200.994	335.109	0.0503183	16.8727	1.4
0.29442	1.04432	1.71539	197.94	333.645	0.0497709	17.1227	1.4
0.298587	1.04562	1.72555	194.921	332.184	0.0492275	17.3727	1.4
0.302748	1.04693	1.73573	191.938	330.723	0.0486882	17.6227	1.4
0.306904	1.04826	1.74593	188.99	329.264	0.0481528	17.8727	1.4
0.312812	1.05019	1.76049	184.851	327.187	0.0473972	18.2288	1.4
0.316954	1.05156	1.77083	181.965	325.719	0.0468675	18.4788	1.4
0.321089	1.05295	1.78119	179.114	324.253	0.0463417	18.7288	1.4
0.325218	1.05436	1.79157	176.297	322.788	0.04582	18.9788	1.4
0.329341	1.05579	1.80198	173.515	321.324	0.0453023	19.2288	1.4
0.333458	1.05723	1.81241	170.766	319.861	0.0447885	19.4788	1.4
0.337568	1.0587	1.82287	168.051	318.4	0.0442787	19.7288	1.4
0.341746	1.06021	1.83355	165.321	316.914	0.0437637	19.9833	1.4
0.345844	1.06171	1.84413	162.656	315.446	0.0432587	20.2333	1.4
0.349934	1.06323	1.85474	160.025	313.979	0.0427578	20.4833	1.4
0.354018	1.06476	1.86537	157.427	312.514	0.0422607	20.7333	1.4
0.358096	1.06632	1.87604	154.861	311.051	0.0417676	20.9833	1.4
0.362166	1.06789	1.88673	152.328	309.588	0.0412784	21.2333	1.4
0.36623	1.06948	1.89746	149.827	308.127	0.0407932	21.4833	1.4
0.373064	1.07219	1.91561	145.682	305.667	0.0399839	21.9047	1.4
0.377109	1.07383	1.92647	143.254	304.203	0.0395068	22.1547	1.4
0.381147	1.07549	1.93736	140.858	302.74	0.0390335	22.4047	1.4
0.385177	1.07716	1.94829	138.492	301.279	0.0385642	22.6547	1.4
0.3892	1.07885	1.95925	136.158	299.819	0.0380987	22.9047	1.4
0.393216	1.08055	1.97024	133.854	298.361	0.0376371	23.1547	1.4
0.397224	1.08228	1.98127	131.58	296.904	0.0371794	23.4047	1.4
0.401224	1.08402	1.99234	129.337	295.449	0.0367255	23.6547	1.4
0.406995	1.08657	2.0084	126.145	293.347	0.0360758	24.0162	1.4
0.410977	1.08835	2.01959	123.966	291.89	0.0356296	24.2662	1.4
0.414951	1.09016	2.03082	121.816	290.435	0.0351872	24.5162	1.4
0.418917	1.09198	2.04209	119.696	288.981	0.0347485	24.7662	1.4
0.422875	1.09381	2.0534	117.604	287.529	0.0343137	25.0162	1.4
0.426825	1.09567	2.06474	115.541	286.079	0.0338827	25.2662	1.4
0.430767	1.09754	2.07613	113.506	284.631	0.0334554	25.5162	1.4
0.4347	1.09942	2.08755	111.5	283.184	0.0330319	25.7662	1.4
0.438626	1.10133	2.09902	109.521	281.739	0.0326121	26.0162	1.4
0.443815	1.10388	2.11428	106.941	279.826	0.0320614	26.3475	1.4
0.447721	1.10583	2.12587	105.021	278.381	0.0316491	26.5975	1.4
0.451618	1.10779	2.1375	103.127	276.938	0.0312406	26.8475	1.4
0.455507	1.10977	2.14918	101.261	275.497	0.0308357	27.0975	1.4
0.459387	1.11176	2.1609	99.4215	274.057	0.0304345	27.3475	1.4
0.461773	1.113	2.16815	98.3011	273.172	0.0301891	27.5016	1.4
0.491694	1.12857	2.18463	95.7978	271.166	0.029638	27.4831	1.4
0.521608	1.14413	2.20085	93.3973	269.207	0.0291056	27.459	1.4
0.551539	1.15967	2.21681	91.0934	267.292	0.0285909	27.4295	1.4
0.581469	1.17519	2.23249	88.8853	265.425	0.0280942	27.3959	1.4
0.611409	1.1907	2.2479	86.7665	263.601	0.0276141	27.3584	1.4
0.64139	1.2062	2.26308	84.7296	261.818	0.0271495	27.317	1.4
0.67138	1.22167	2.278	82.7743	260.078	0.0267005	27.2726	1.4
0.701408	1.23714	2.29268	80.8934	258.375	0.0262657	27.2251	1.4
0.731471	1.25259	2.30714	79.0838	256.711	0.0258447	27.175	1.4
0.761556	1.26802	2.32137	77.343	255.083	0.025437	27.1225	1.4
0.791702	1.28344	2.3354	75.6645	253.489	0.0250415	27.0675	1.4
0.821865	1.29883	2.34921	74.0483	251.93	0.0246583	27.0106	1.4
0.852093	1.31422	2.36283	72.4882	250.402	0.024286	26.9515	1.4
0.912726	1.34497	2.38953	69.527	247.436	0.0235732	26.828	1.4
0.973544	1.37564	2.41551	66.7633	244.585	0.0229	26.698	1.4
1.03455	1.40624	2.44083	64.1779	241.84	0.022263	26.5621	1.4
1.09577	1.43675	2.46553	61.7538	239.195	0.0216591	26.421	1.4
1.15718	1.46717	2.48967	59.4763	236.64	0.0210855	26.2751	1.4
1.21881	1.49749	2.51327	57.332	234.171	0.0205396	26.1249	1.4
1.28066	1.52772	2.53639	55.3095	231.78	0.0200194	25.9706	1.4
1.34272	1.55785	2.55904	53.3984	229.463	0.0195229	25.8128	1.4
1.40502	1.58787	2.58124	51.5922	227.218	0.0190488	25.6523	1.4
1.46755	1.6178	2.6028	49.8988	225.062	0.0186001	25.4942	1.4
1.5303	1.64761	2.62424	48.2711	222.939	0.0181647	25.3273	1.4
1.59329	1.67731	2.645	46.7478	220.906	0.0177534	25.1651	1.4
1.65651	1.7069	2.66514	45.3181	218.954	0.0173638	25.007	1.4
1.71993	1.73639	2.68397	44.0223	217.147	0.0170077	24.8683	1.4
1.78351	1.76577	2.70233	42.7966	215.402	0.0166681	24.731	1.4
1.84726	1.79504	2.7206	41.6115	213.681	0.0163371	24.5871	1.4
1.91121	1.8242	2.73861	40.4775	212	0.0160178	24.4414	1.4
1.97534	1.85324	2.75649	39.383	210.347	0.0157073	24.291	1.4
2.03968	1.88218	2.77416	38.3322	208.728	0.0154068	24.1385	1.4
2.10422	1.91099	2.79181	37.3122	207.125	0.0151128	23.9803	1.4
2.16898	1.9397	2.80905	36.3428	205.573	0.0148313	23.8246	1.4
2.23398	1.96828	2.82648	35.3898	204.019	0.0145524	23.6596	1.4
2.2992	1.99674	2.84355	34.4826	202.51	0.014285	23.4972	1.4
2.36466	2.02509	2.86075	33.5925	201.003	0.0140206	23.3272	1.4
2.43038	2.05331	2.87757	32.7457	199.542	0.0137673	23.1606	1.4
2.49634	2.08142	2.8943	31.9258	198.101	0.0135201	22.9917	1.4
2.56256	2.1094	2.91101	31.1284	196.675	0.0132781	22.8194	1.4
2.62905	2.13726	2.92718	30.3772	195.307	0.0130484	22.6543	1.4
2.69579	2.165	2.94356	29.6356	193.933	0.0128201	22.4816	1.4
2.76281	2.19261	2.95989	28.9154	192.574	0.0125967	22.3068	1.4
2.8301	2.2201	2.9757	28.2356	191.27	0.0123845	22.139	1.4
2.89766	2.24747	2.99164	27.5673	189.965	0.0121744	21.9659	1.4
2.96551	2.27472	3.00757	26.9163	188.673	0.0119684	21.7905	1.4
3.03364	2.30183	3.02302	26.3007	187.429	0.0117722	21.6218	1.4
3.10206	2.32883	3.03855	25.6968	186.19	0.0115785	21.4493	1.4
3.17077	2.35571	3.0541	25.1071	184.959	0.0113881	21.2743	1.4
3.23978	2.38245	3.06944	24.5395	183.754	0.0112035	21.1012	1.4
3.30908	2.40908	3.08441	23.9983	182.587	0.0110265	20.9329	1.4
3.37868	2.43558	3.09962	23.4618	181.412	0.0108499	20.7586	1.4
3.44862	2.46195	3.11577	22.9063	180.174	0.0106657	20.5653	1.4
3.51888	2.4882	3.13021	22.4213	179.075	0.0105039	20.4019	1.4
3.58942	2.51432	3.14438	21.9563	178.006	0.0103479	20.2421	1.4
3.66024	2.54032	3.15833	21.5084	176.961	0.0101967	20.0846	1.4
3.73133	2.5662	3.17213	21.0749	175.935	0.0100494	19.9284	1.4
3.80269	2.59197	3.18584	20.6534	174.922	0.00990544	19.7723	1.4
3.87435	2.61762	3.1995	20.2426	173.921	0.00976432	19.616	1.4
3.94628	2.64314	3.21315	19.8408	172.928	0.00962548	19.4586	1.4
4.01849	2.66854	3.22683	19.4467	171.939	0.00948853	19.2995	1.4
4.09103	2.69383	3.24051	19.0609	170.957	0.00935367	19.1394	1.4
4.16382	2.71898	3.25433	18.6795	169.973	0.00921962	18.9758	1.4
4.23697	2.74401	3.2682	18.3051	168.993	0.00908724	18.8105	1.4
4.31048	2.76893	3.2821	17.938	168.017	0.00895668	18.6441	1.4
4.38414	2.79366	3.29627	17.5719	167.03	0.00882574	18.472	1.4
4.45828	2.81831	3.31038	17.2151	166.054	0.00869735	18.3003	1.4
4.53292	2.84288	3.32446	16.8671	165.088	0.0085714	18.129	1.4
4.60786	2.86729	3.33836	16.5307	164.141	0.00844896	17.9599	1.4
4.68291	2.89151	3.35201	16.2076	163.218	0.00833066	17.7945	1.4
4.75846	2.91564	3.36562	15.8922	162.304	0.00821453	17.6293	1.4
4.83451	2.93969	3.3792	15.5842	161.399	0.00810049	17.4645	1.4
4.91105	2.96365	3.39272	15.2837	160.503	0.00798862	17.3002	1.4
4.98749	2.98735	3.40571	15.001	159.65	0.00788281	17.144	1.4
5.06441	3.01097	3.41866	14.7247	158.804	0.00777883	16.988	1.4
5.14181	3.0345	3.43158	14.4546	157.966	0.00767662	16.8324	1.4
5.21971	3.05796	3.44448	14.1903	157.135	0.00757611	16.6769	1.4
5.29751	3.08115	3.45719	13.9349	156.322	0.00747847	16.5237	1.4
5.37572	3.10425	3.46986	13.6854	155.517	0.00738255	16.371	1.4
5.45443	3.12727	3.48251	13.4411	154.719	0.00728819	16.2185	1.4
5.53364	3.1502	3.49513	13.202	153.927	0.00719533	16.0662	1.4
5.61331	3.17303	3.50769	12.9685	153.145	0.00710421	15.9147	1.4
5.69301	3.19564	3.51994	12.7452	152.387	0.00701663	15.7678	1.4
5.77319	3.21817	3.53217	12.5265	151.635	0.0069304	15.621	1.4
5.8536	3.24055	3.54435	12.3127	150.891	0.00684569	15.4748	1.4
5.93439	3.2628	3.55649	12.1033	150.153	0.00676236	15.3289	1.4
6.01568	3.28498	3.56862	11.8982	149.422	0.00668031	15.1832	1.4
6.09708	3.30696	3.58047	11.7014	148.711	0.00660117	15.0415	1.4
6.17898	3.32886	3.59231	11.5083	148.006	0.00652318	14.8999	1.4
6.26114	3.35061	3.60409	11.3197	147.309	0.00644663	14.7591	1.4
6.3436	3.37223	3.61581	11.1352	146.619	0.00637141	14.619	1.4
6.42657	3.39377	3.62752	10.9542	145.934	0.00629725	14.479	1.4
6.50986	3.41517	3.63913	10.778	145.259	0.00622474	14.3405	1.4
6.59339	3.43642	3.65059	10.6069	144.597	0.00615402	14.204	1.4
6.67744	3.45758	3.66205	10.439	143.939	0.00608425	14.0676	1.4
6.76154	3.47856	3.67337	10.2758	143.293	0.00601618	13.9331	1.4
6.93124	3.52024	3.69597	9.95844	142.014	0.00588286	13.6646	1.4
7.10238	3.56143	3.71827	9.65557	140.766	0.00575449	13.4002	1.4
7.27482	3.6021	3.74029	9.36653	139.549	0.00563092	13.1399	1.4
7.44847	3.64223	3.76202	9.09038	138.361	0.00551183	12.8834	1.4
7.62404	3.68198	3.78368	8.82401	137.19	0.00539598	12.6282	1.4
7.80067	3.72115	3.80496	8.5706	136.053	0.00528483	12.3782	1.4
7.9783	3.75974	3.8259	8.32902	134.946	0.005178	12.133	1.4
8.1577	3.79792	3.84674	8.09593	133.856	0.00507407	11.8893	1.4
8.33886	3.83567	3.86746	7.87125	132.784	0.00497308	11.6474	1.4
8.52111	3.87284	3.88785	7.6568	131.74	0.00487592	11.4101	1.4
8.70459	3.90949	3.90798	7.45136	130.72	0.00478211	11.1765	1.4
8.88959	3.94565	3.92793	7.25368	129.72	0.00469115	10.9454	1.4
9.07608	3.98133	3.94769	7.06351	128.739	0.00460297	10.717	1.4
9.26367	4.01646	3.96717	6.8814	127.782	0.00451788	10.4925	1.4
9.45288	4.05112	3.9865	6.7058	126.842	0.00443523	10.2702	1.4
9.58693	4.07518	4	6.58609	126.19	0.00437853	10.1154	1.4
zone t="RRC BD"
0.461773	1.113	2.16815	98.3011	273.172	0.0301891	27.5016	1.4
0.475633	1.11302	2.17443	97.3397	272.405	0.0299779	27.4889	1.4
0.502017	1.1131	2.18651	95.5164	270.938	0.0295758	27.4609	1.4
0.529382	1.11325	2.19915	93.6467	269.412	0.0291611	27.4285	1.4
0.557713	1.11347	2.2123	91.7384	267.832	0.0287354	27.3924	1.4
0.586991	1.11377	2.22595	89.7988	266.201	0.0283001	27.3527	1.4
0.617202	1.11416	2.24009	87.8342	264.524	0.0278564	27.3097	1.4
0.648331	1.11463	2.25468	85.8503	262.803	0.0274056	27.2637	1.4
0.680366	1.11519	2.26973	83.852	261.041	0.0269484	27.2146	1.4
0.713295	1.11585	2.28522	81.8435	259.239	0.0264857	27.1626	1.4
0.747112	1.1166	2.30115	79.8284	257.399	0.0260183	27.1075	1.4
0.781811	1.11746	2.31753	77.8094	255.522	0.0255465	27.0493	1.4
0.81739	1.11843	2.33435	75.7889	253.608	0.0250709	26.9876	1.4
0.853852	1.1195	2.35163	73.769	251.658	0.0245918	26.9222	1.4
0.891202	1.12069	2.36937	71.7511	249.672	0.0241094	26.8529	1.4
0.929447	1.122	2.3876	69.7365	247.649	0.0236239	26.7791	1.4
0.968602	1.12342	2.40634	67.7262	245.588	0.0231354	26.7006	1.4
1.00868	1.12496	2.42559	65.721	243.488	0.0226441	26.6168	1.4
1.03629	1.12608	2.43854	64.4073	242.087	0.0223198	26.5659	1.4
1.07764	1.12782	2.45857	62.4277	239.937	0.0218276	26.4734	1.4
1.10625	1.12908	2.47212	61.1235	238.494	0.0215009	26.4157	1.4
1.13519	1.13039	2.4859	59.8261	237.037	0.021174	26.355	1.4
1.16263	1.13167	2.49802	58.7078	235.762	0.0208905	26.3189	1.4
1.1889	1.13294	2.50916	57.6997	234.599	0.0206336	26.2949	1.4
1.21534	1.13426	2.52054	56.6876	233.415	0.0203745	26.2662	1.4
1.24215	1.13563	2.5323	55.6615	232.2	0.0201103	26.2318	1.4
1.26878	1.13703	2.54389	54.669	231.01	0.0198535	26.1991	1.4
1.29615	1.13851	2.55612	53.6415	229.761	0.0195863	26.1578	1.4
1.32347	1.14002	2.56827	52.6402	228.527	0.0193245	26.1173	1.4
1.35119	1.14159	2.58074	51.6324	227.269	0.0190594	26.0723	1.4
1.37962	1.14323	2.59379	50.5995	225.96	0.0187863	26.02	1.4
1.40741	1.14487	2.60624	49.6333	224.719	0.0185294	25.9748	1.4
1.43131	1.14631	2.61762	48.7678	223.592	0.018298	25.9209	1.4
1.46012	1.14807	2.63087	47.7793	222.288	0.0180323	25.8655	1.4
1.4838	1.14953	2.64195	46.9687	221.204	0.0178133	25.8153	1.4
1.50858	1.15109	2.6539	46.1106	220.041	0.0175802	25.7546	1.4
1.53282	1.15264	2.66536	45.3026	218.933	0.0173596	25.6998	1.4
1.55688	1.15419	2.67669	44.5188	217.844	0.0171445	25.6461	1.4
1.58193	1.15582	2.68881	43.6958	216.686	0.0169175	25.5826	1.4
1.60716	1.15748	2.70106	42.8803	215.522	0.0166914	25.5173	1.4
1.63094	1.15906	2.71214	42.1561	214.476	0.0164895	25.4655	1.4
1.65583	1.16074	2.72413	41.3865	213.35	0.016274	25.4022	1.4
1.67888	1.1623	2.73555	40.6676	212.284	0.0160715	25.3366	1.4
1.70163	1.16385	2.74674	39.9761	211.247	0.0158759	25.2734	1.4
1.72305	1.16533	2.7569	39.3587	210.31	0.0157003	25.2215	1.4
1.74757	1.16703	2.76877	38.6497	209.22	0.0154978	25.1565	1.4
1.76908	1.16853	2.77951	38.0201	208.241	0.0153171	25.0924	1.4
1.79164	1.17012	2.79075	37.3725	207.221	0.0151302	25.0253	1.4
1.81273	1.17161	2.80091	36.7974	206.305	0.0149636	24.9697	1.4
1.83256	1.17301	2.81053	36.2608	205.441	0.0148074	24.9155	1.4
1.85277	1.17446	2.82056	35.7107	204.545	0.0146466	24.8556	1.4
1.87289	1.1759	2.83063	35.1668	203.65	0.0144869	24.7939	1.4
1.89268	1.17732	2.84057	34.639	202.772	0.0143312	24.7323	1.4
1.91186	1.17871	2.85018	34.1365	201.928	0.0141824	24.6729	1.4
1.92897	1.17994	2.85835	33.7154	201.213	0.0140573	24.628	1.4
1.94643	1.18121	2.86697	33.2768	200.461	0.0139264	24.5762	1.4
1.96324	1.18244	2.87543	32.8524	199.727	0.0137993	24.523	1.4
1.9795	1.18363	2.88367	32.4444	199.016	0.0136767	24.4701	1.4
1.98679	1.18416	2.88794	32.2349	198.648	0.0136135	24.4346	1.4
1.99189	1.18453	2.89123	32.0747	198.365	0.0135652	24.4039	1.4
2.00093	1.18519	2.89619	31.8348	197.94	0.0134926	24.3667	1.4
2.01293	1.18606	2.90202	31.5548	197.441	0.0134077	24.3324	1.4
2.02958	1.18728	2.90998	31.177	196.763	0.0132929	24.2873	1.4
2.0511	1.18886	2.92018	30.7001	195.898	0.0131473	24.2307	1.4
2.07744	1.1908	2.93253	30.1329	194.857	0.0129734	24.1637	1.4
2.10869	1.19312	2.94707	29.4789	193.639	0.0127716	24.0859	1.4
2.14524	1.19584	2.96404	28.7349	192.23	0.0125405	23.9951	1.4
2.18779	1.19904	2.9839	27.8898	190.598	0.012276	23.8868	1.4
2.23745	1.20279	3.00737	26.9244	188.689	0.0119709	23.7535	1.4
2.29625	1.20725	3.03585	25.8009	186.405	0.011612	23.5813	1.4
2.36876	1.21276	3.07245	24.4296	183.519	0.0111677	23.3386	1.4
2.47774	1.22098	3.13088	22.3993	179.025	0.0104966	22.9065	1.4
2.60235	1.23022	3.19632	20.3375	174.154	0.00979699	22.4331	1.4
2.72324	1.23903	3.25708	18.6047	169.778	0.00919322	22.0187	1.4
2.86256	1.249	3.32721	16.8	164.9	0.00854702	21.5353	1.4
2.93374	1.254	3.36212	15.9728	162.538	0.00824428	21.3024	1.4
3.01188	1.25943	3.40076	15.1081	159.974	0.00792294	21.0403	1.4
3.08485	1.26442	3.43604	14.3626	157.678	0.00764171	20.808	1.4
3.17673	1.2706	3.48065	13.4767	154.836	0.00730198	20.5115	1.4
3.25249	1.27562	3.51681	12.8019	152.58	0.00703892	20.2761	1.4
3.36079	1.28264	3.56839	11.902	149.435	0.00668182	19.94	1.4
3.4396	1.28764	3.60542	11.2985	147.23	0.00643803	19.7027	1.4
3.56747	1.29556	3.66512	10.3944	143.763	0.00606567	19.3221	1.4
3.64975	1.30053	3.70305	9.86108	141.616	0.00584172	19.0839	1.4
3.80108	1.30938	3.77219	8.96421	137.81	0.00545708	18.6538	1.4
3.88742	1.31427	3.81113	8.4986	135.725	0.00525308	18.4151	1.4
3.97516	1.31912	3.85042	8.05545	133.664	0.00505594	18.1762	1.4
4.06673	1.32405	3.89104	7.62385	131.578	0.00486093	17.932	1.4
4.15824	1.32885	3.93133	7.22058	129.551	0.00467585	17.6918	1.4
4.22963	1.33248	3.96243	6.92525	128.014	0.00453843	17.5087	1.4
4.25042	1.33354	3.97149	6.84178	127.571	0.00449929	17.4554	1.4
4.37194	1.33951	4.02398	6.3792	125.045	0.00427984	17.1496	1.4
4.46881	1.34411	4.06536	6.03868	123.1	0.00411538	16.9116	1.4
4.56726	1.34863	4.10705	5.71573	121.182	0.00395694	16.6744	1.4
4.72487	1.35554	4.17299	5.24313	118.231	0.00372038	16.3049	1.4
4.82884	1.35988	4.21597	4.95826	116.359	0.00357485	16.0674	1.4
4.93443	1.36412	4.2592	4.68892	114.516	0.00343504	15.8315	1.4
5.13764	1.3718	4.34126	4.22091	111.127	0.0031865	15.3913	1.4
5.25003	1.37577	4.386	3.98769	109.337	0.00305972	15.1555	1.4
5.36475	1.37963	4.43123	3.76629	107.567	0.00293739	14.92	1.4
5.48138	1.38336	4.47671	3.55727	105.827	0.00282	14.6864	1.4
5.62567	1.38768	4.53239	3.3187	103.748	0.00268358	14.4042	1.4
5.7489	1.39114	4.5794	3.13107	102.037	0.00257431	14.1696	1.4
5.87463	1.39445	4.62685	2.95349	100.349	0.00246915	13.9358	1.4
6.00299	1.39759	4.67479	2.78538	98.6831	0.00236793	13.7028	1.4
6.21044	1.40219	4.7512	2.53892	96.1053	0.00221631	13.338	1.4
6.34725	1.4049	4.80089	2.39171	94.479	0.00212374	13.105	1.4
6.48721	1.40741	4.85118	2.25232	92.8719	0.00203457	12.8724	1.4
6.6302	1.40972	4.90198	2.12062	91.2868	0.00194887	12.6409	1.4
6.9221	1.41361	5.00398	1.88129	88.2163	0.0017891	12.1861	1.4
7.07615	1.41523	5.05686	1.76917	86.681	0.00171227	11.9556	1.4
7.23484	1.4166	5.11081	1.66241	85.1533	0.00163782	11.7235	1.4
7.39637	1.41769	5.16497	1.56241	83.6572	0.00156682	11.4946	1.4
7.56284	1.41849	5.22023	1.46724	82.1684	0.00149804	11.264	1.4
7.80359	1.41909	5.29891	1.34273	80.1127	0.0014061	10.9426	1.4
7.98136	1.41912	5.35622	1.25946	78.6606	0.00134324	10.7126	1.4
8.16346	1.41879	5.41417	1.18108	77.2296	0.00128299	10.4839	1.4
8.35054	1.41808	5.473	1.10705	75.8146	0.00122502	10.2554	1.4
8.54258	1.41698	5.53264	1.03727	74.4172	0.00116935	10.0276	1.4
8.92032	1.41373	5.64783	0.915977	71.8196	0.00106996	9.59809	1.4
9.12858	1.41134	5.71012	0.857075	70.4686	0.00102035	9.37172	1.4
9.34429	1.40843	5.77396	0.801069	69.121	0.000972271	9.14303	1.4
9.56448	1.40502	5.83809	0.748903	67.8039	0.000926613	8.91794	1.4
9.58693	1.40463	5.84456	0.743857	67.673	0.000926173	8.89558	1.4
zone t="LRC DE"
2.15952	0.0148651	2.48042	60.344	237.617	0.0213044	0.277498	1.4
2.17816	0.0512903	2.49417	59.0729	236.171	0.0209823	0.959532	1.4
2.20516	0.0636583	2.51351	57.3227	234.15	0.0205364	1.18865	1.4
2.23221	0.0760729	2.53287	55.6244	232.146	0.0200999	1.41664	1.4
2.25933	0.08854	2.55225	53.9757	230.159	0.0196725	1.64376	1.4
2.2477	0.120681	2.54633	54.4673	230.762	0.0198008	2.24299	1.4
2.27441	0.13336	2.56574	52.8519	228.785	0.0193796	2.47197	1.4
2.30121	0.146103	2.58519	51.2826	226.823	0.0189668	2.70021	1.4
2.3281	0.158918	2.60469	49.7578	224.876	0.0185622	2.92779	1.4
2.33705	0.190775	2.6141	49.0384	223.942	0.0183701	3.51211	1.4
2.36382	0.20385	2.63373	47.5732	222.009	0.0179764	3.74098	1.4
2.39071	0.217011	2.65343	46.149	220.089	0.0175903	3.96926	1.4
2.41772	0.230264	2.67318	44.7647	218.182	0.0172117	4.197	1.4
2.43248	0.268534	2.68853	43.7223	216.716	0.0169243	4.88745	1.4
2.45939	0.282098	2.70844	42.4041	214.828	0.0165582	5.11609	1.4
2.48644	0.295769	2.72842	41.1224	212.952	0.0161991	5.34427	1.4
2.51364	0.309552	2.74849	39.8761	211.088	0.0158469	5.57199	1.4
2.54099	0.323452	2.76865	38.6643	209.235	0.0155014	5.7993	1.4
2.57982	0.343247	2.79721	37.0129	206.641	0.0150255	6.11895	1.4
2.60774	0.357535	2.81773	35.8721	204.801	0.0146932	6.34712	1.4
2.63584	0.371956	2.83836	34.7629	202.971	0.0143673	6.5749	1.4
2.66413	0.386517	2.85908	33.6847	201.152	0.0140475	6.80229	1.4
2.69261	0.401222	2.87992	32.6364	199.343	0.0137339	7.02932	1.4
2.69329	0.4414	2.88917	32.1791	198.544	0.0135964	7.73744	1.4
2.72158	0.456458	2.91013	31.1741	196.753	0.0132917	7.96514	1.4
2.75007	0.471674	2.93121	30.1971	194.97	0.0129927	8.1925	1.4
2.77878	0.487053	2.9524	29.2472	193.198	0.0126995	8.41954	1.4
2.80771	0.502601	2.97372	28.3237	191.435	0.0124117	8.64628	1.4
2.83687	0.518324	2.99516	27.426	189.681	0.0121295	8.87271	1.4
2.8788	0.541028	3.02592	26.1906	187.2	0.0117366	9.19471	1.4
2.90866	0.557263	3.04778	25.3487	185.46	0.0114659	9.42163	1.4
2.93877	0.573692	3.06978	24.5306	183.73	0.0112003	9.64826	1.4
2.96915	0.590321	3.09192	23.7356	182.009	0.0109398	9.87462	1.4
2.99979	0.607155	3.1142	22.9633	180.296	0.0106844	10.1007	1.4
3.0307	0.624202	3.13663	22.2129	178.593	0.0104338	10.3265	1.4
3.0619	0.641465	3.15921	21.4839	176.898	0.010188	10.5521	1.4
3.09395	0.65927	3.18235	20.7633	175.182	0.00994274	10.7815	1.4
3.12585	0.677052	3.20533	20.0733	173.499	0.0097056	11.0075	1.4
3.15805	0.695072	3.22847	19.4033	171.824	0.00947309	11.2332	1.4
3.19057	0.713336	3.25178	18.7528	170.158	0.00924512	11.4587	1.4
3.22341	0.731851	3.27525	18.1212	168.5	0.00902163	11.684	1.4
3.25658	0.750624	3.29889	17.5081	166.851	0.00880253	11.909	1.4
3.29009	0.769662	3.32271	16.913	165.211	0.00858775	12.1338	1.4
3.34738	0.802375	3.36327	15.9492	162.464	0.00823526	12.5122	1.4
3.38194	0.822214	3.38766	15.3985	160.841	0.00803114	12.7372	1.4
3.41688	0.842347	3.41223	14.8643	159.226	0.00783111	12.9619	1.4
3.4522	0.862781	3.43699	14.346	157.62	0.00763511	13.1863	1.4
3.48792	0.883525	3.46195	13.8434	156.022	0.00744306	13.4106	1.4
3.52403	0.904587	3.48712	13.356	154.432	0.00725491	13.6347	1.4
3.56057	0.925975	3.51248	12.8834	152.851	0.00707059	13.8585	1.4
3.59752	0.947698	3.53806	12.4252	151.277	0.00689003	14.0822	1.4
3.65173	0.97972	3.57543	11.7873	149.016	0.00663549	14.4052	1.4
3.68985	1.00235	3.6016	11.3618	147.459	0.0064635	14.6289	1.4
3.72843	1.02535	3.62799	10.9495	145.91	0.00629508	14.8524	1.4
3.76748	1.04872	3.65461	10.5501	144.369	0.00613019	15.0757	1.4
3.80702	1.07249	3.68147	10.1632	142.836	0.00596875	15.2989	1.4
3.84706	1.09665	3.70856	9.78852	141.311	0.00581072	15.5218	1.4
3.88761	1.12122	3.7359	9.42567	139.794	0.00565603	15.7445	1.4
3.92868	1.14621	3.76348	9.07437	138.285	0.00550464	15.9671	1.4
3.97029	1.17164	3.79132	8.7343	136.784	0.00535648	16.1895	1.4
4.02628	1.20602	3.82861	8.30039	134.807	0.00516502	16.4839	1.4
4.06925	1.23254	3.85711	7.98475	133.322	0.00502395	16.7062	1.4
4.11281	1.25953	3.88587	7.67941	131.844	0.00488596	16.9284	1.4
4.15697	1.28701	3.91491	7.38406	130.375	0.00475098	17.1504	1.4
4.20174	1.31498	3.94422	7.09845	128.914	0.00461898	17.3722	1.4
4.22963	1.33248	3.96243	6.92525	128.014	0.00453843	17.5087	1.4
4.25075	1.34571	3.96003	6.94757	128.132	0.00454887	17.3958	1.4
4.27188	1.3589	3.95782	6.9682	128.24	0.00455852	17.2867	1.4
4.29303	1.37205	3.95578	6.98729	128.341	0.00456743	17.1811	1.4
4.31419	1.38516	3.95389	7.00498	128.433	0.00457569	17.0787	1.4
4.33537	1.39823	3.95215	7.02137	128.519	0.00458333	16.9794	1.4
4.35656	1.41127	3.95054	7.03656	128.599	0.00459042	16.883	1.4
4.37778	1.42426	3.94905	7.05066	128.672	0.00459698	16.7892	1.4
4.399	1.43723	3.94767	7.06374	128.74	0.00460307	16.6979	1.4
4.42024	1.45016	3.94639	7.07588	128.803	0.00460872	16.6091	1.4
4.4415	1.46305	3.94521	7.08713	128.862	0.00461396	16.5224	1.4
4.46277	1.47592	3.94411	7.09757	128.916	0.00461881	16.438	1.4
4.48405	1.48875	3.9431	7.10725	128.966	0.00462331	16.3555	1.4
4.50535	1.50155	3.94216	7.11622	129.013	0.00462747	16.275	1.4
4.54804	1.52709	3.94049	7.13221	129.096	0.0046349	16.1193	1.4
4.59078	1.55252	3.93906	7.14586	129.166	0.00464123	15.9702	1.4
4.63357	1.57783	3.93786	7.15743	129.226	0.0046466	15.8274	1.4
4.67641	1.60304	3.93685	7.16717	129.276	0.00465112	15.6902	1.4
4.7193	1.62815	3.93601	7.17528	129.318	0.00465487	15.5582	1.4
4.76225	1.65315	3.93532	7.18193	129.352	0.00465796	15.4311	1.4
4.80523	1.67806	3.93476	7.18728	129.38	0.00466043	15.3085	1.4
4.84827	1.70288	3.93433	7.19145	129.401	0.00466237	15.1901	1.4
4.89135	1.72761	3.93401	7.19458	129.417	0.00466381	15.0756	1.4
4.93447	1.75226	3.93378	7.19675	129.428	0.00466482	14.9648	1.4
4.97764	1.77682	3.93365	7.19807	129.435	0.00466543	14.8575	1.4
5.02085	1.8013	3.93359	7.19861	129.438	0.00466568	14.7534	1.4
5.0641	1.8257	3.93361	7.19844	129.437	0.0046656	14.6524	1.4
5.1074	1.85002	3.93369	7.19764	129.433	0.00466523	14.5543	1.4
5.15073	1.87427	3.93384	7.19626	129.426	0.00466459	14.4589	1.4
5.19411	1.89845	3.93403	7.19435	129.416	0.00466371	14.3662	1.4
5.23752	1.92256	3.93428	7.19196	129.404	0.0046626	14.2759	1.4
5.28097	1.9466	3.93457	7.18913	129.389	0.00466129	14.188	1.4
5.32445	1.97058	3.93491	7.1859	129.372	0.00465979	14.1023	1.4
5.36798	1.99449	3.93528	7.18231	129.354	0.00465813	14.0187	1.4
5.41154	2.01833	3.93569	7.17838	129.334	0.00465631	13.9371	1.4
5.45513	2.04212	3.93612	7.17415	129.312	0.00465435	13.8575	1.4
5.49876	2.06584	3.93659	7.16964	129.289	0.00465226	13.7798	1.4
5.54243	2.08951	3.93709	7.16488	129.264	0.00465005	13.7038	1.4
5.58612	2.11311	3.9376	7.15989	129.238	0.00464774	13.6296	1.4
5.62985	2.13667	3.93815	7.15468	129.212	0.00464533	13.557	1.4
5.67362	2.16016	3.93871	7.14928	129.184	0.00464282	13.4859	1.4
5.71741	2.1836	3.93929	7.14371	129.155	0.00464024	13.4164	1.4
5.76124	2.20699	3.93988	7.13797	129.125	0.00463757	13.3483	1.4
5.8051	2.23033	3.9405	7.13209	129.095	0.00463484	13.2816	1.4
5.84898	2.25361	3.94113	7.12608	129.064	0.00463205	13.2162	1.4
5.8929	2.27685	3.94177	7.11994	129.032	0.0046292	13.1521	1.4
5.93685	2.30003	3.94242	7.1137	129	0.0046263	13.0893	1.4
5.98082	2.32317	3.94308	7.10735	128.967	0.00462336	13.0277	1.4
6.02483	2.34626	3.94376	7.10092	128.933	0.00462036	12.9672	1.4
6.06886	2.3693	3.94444	7.0944	128.9	0.00461734	12.9079	1.4
6.11292	2.3923	3.94513	7.08781	128.865	0.00461427	12.8496	1.4
6.15701	2.41526	3.94583	7.08116	128.831	0.00461118	12.7924	1.4
6.20113	2.43817	3.94654	7.07444	128.796	0.00460805	12.7362	1.4
6.24527	2.46103	3.94725	7.06768	128.761	0.0046049	12.681	1.4
6.28944	2.48386	3.94797	7.06086	128.725	0.00460173	12.6267	1.4
6.33363	2.50664	3.94869	7.05401	128.69	0.00459854	12.5734	1.4
6.37785	2.52938	3.94942	7.04712	128.654	0.00459534	12.5209	1.4
6.4221	2.55208	3.95015	7.0402	128.618	0.00459211	12.4694	1.4
6.46637	2.57474	3.95089	7.03326	128.581	0.00458888	12.4186	1.4
6.51066	2.59736	3.95163	7.02629	128.545	0.00458563	12.3687	1.4
6.55498	2.61995	3.95237	7.0193	128.508	0.00458237	12.3196	1.4
6.59933	2.64249	3.95311	7.01231	128.472	0.00457911	12.2712	1.4
6.64369	2.665	3.95386	7.00529	128.435	0.00457584	12.2236	1.4
6.68808	2.68747	3.95461	6.99827	128.398	0.00457256	12.1767	1.4
6.7325	2.7099	3.95536	6.99125	128.361	0.00456928	12.1305	1.4
6.77693	2.7323	3.95611	6.98422	128.325	0.004566	12.085	1.4
6.82139	2.75467	3.95686	6.97719	128.288	0.00456272	12.0402	1.4